n -t * -s 0  -x 209.4644396609927 -y 68.837382303940771 -Z 0 -z 30  -v circle -c green
n -t * -s 1  -x 306.81386436653042 -y 220.61840827605613 -Z 0 -z 30  -v circle -c green
n -t * -s 2  -x 211.76261595066759 -y 294.28628287012049 -Z 0 -z 30  -v circle -c green
n -t * -s 3  -x 231.0217230725203 -y 382.09967984915698 -Z 0 -z 30  -v circle -c green
n -t * -s 4  -x 208.21089493493125 -y 200.51117138960919 -Z 0 -z 30  -v circle -c green
n -t * -s 5  -x 265.56153179405328 -y 92.664862653550159 -Z 0 -z 30  -v circle -c green
V -t * -v 1.0a5 -a 0
W -t * -x 600 -y 600
A -t * -n 1 -p 0 -o 0x7fffffff -c 30 -a 1
A -t * -h 1 -m 1073741823 -s 0
+ -t 0.500000000 -s 1 -d -1 -p tcp -e 40 -c 2 -a 0 -i 0 -k AGT 
- -t 0.500000000 -s 1 -d -1 -p tcp -e 40 -c 2 -a 0 -i 0 -k AGT
h -t 0.500000000 -s 1 -d -1 -p tcp -e 40 -c 2 -a 0 -i 0 -k AGT
+ -t 0.500000000 -s 1 -d -1 -p AODV -e 48 -c 2 -a 0 -i 0 -k RTR 
- -t 0.500000000 -s 1 -d -1 -p AODV -e 48 -c 2 -a 0 -i 0 -k RTR
h -t 0.500000000 -s 1 -d -1 -p AODV -e 48 -c 2 -a 0 -i 0 -k RTR
r -t 0.500988335 -s 4 -d -1 -p AODV -e 48 -c 2 -a 0 -i 0 -k RTR
r -t 0.500988401 -s 2 -d -1 -p AODV -e 48 -c 2 -a 0 -i 0 -k RTR
r -t 0.500988448 -s 5 -d -1 -p AODV -e 48 -c 2 -a 0 -i 0 -k RTR
+ -t 0.500988448 -s 5 -d 1 -p AODV -e 44 -c 2 -a 0 -i 0 -k RTR 
- -t 0.500988448 -s 5 -d 1 -p AODV -e 44 -c 2 -a 0 -i 0 -k RTR
h -t 0.500988448 -s 5 -d 1 -p AODV -e 44 -c 2 -a 0 -i 0 -k RTR
r -t 0.500988595 -s 3 -d -1 -p AODV -e 48 -c 2 -a 0 -i 0 -k RTR
r -t 0.500988601 -s 0 -d -1 -p AODV -e 48 -c 2 -a 0 -i 0 -k RTR
+ -t 0.501869562 -s 4 -d -1 -p AODV -e 48 -c 2 -a 0 -i 0 -k RTR 
- -t 0.501869562 -s 4 -d -1 -p AODV -e 48 -c 2 -a 0 -i 0 -k RTR
h -t 0.501869562 -s 4 -d -1 -p AODV -e 48 -c 2 -a 0 -i 0 -k RTR
r -t 0.503095168 -s 2 -d -1 -p AODV -e 48 -c 2 -a 0 -i 0 -k RTR
r -t 0.503095191 -s 1 -d -1 -p AODV -e 48 -c 2 -a 0 -i 0 -k RTR
r -t 0.503095262 -s 5 -d -1 -p AODV -e 48 -c 2 -a 0 -i 0 -k RTR
r -t 0.503095294 -s 0 -d -1 -p AODV -e 48 -c 2 -a 0 -i 0 -k RTR
r -t 0.503095465 -s 3 -d -1 -p AODV -e 48 -c 2 -a 0 -i 0 -k RTR
+ -t 0.504118219 -s 0 -d -1 -p AODV -e 48 -c 2 -a 0 -i 0 -k RTR 
- -t 0.504118219 -s 0 -d -1 -p AODV -e 48 -c 2 -a 0 -i 0 -k RTR
h -t 0.504118219 -s 0 -d -1 -p AODV -e 48 -c 2 -a 0 -i 0 -k RTR
+ -t 0.505400135 -s 2 -d -1 -p AODV -e 48 -c 2 -a 0 -i 0 -k RTR 
- -t 0.505400135 -s 2 -d -1 -p AODV -e 48 -c 2 -a 0 -i 0 -k RTR
h -t 0.505400135 -s 2 -d -1 -p AODV -e 48 -c 2 -a 0 -i 0 -k RTR
+ -t 0.506487880 -s 1 -d 5 -p tcp -e 40 -c 2 -a 0 -i 0 -k RTR 
- -t 0.506487880 -s 1 -d 5 -p tcp -e 40 -c 2 -a 0 -i 0 -k RTR
h -t 0.506487880 -s 1 -d 5 -p tcp -e 40 -c 2 -a 0 -i 0 -k RTR
r -t 0.508333224 -s 5 -d 5 -p tcp -e 40 -c 2 -a 0 -i 0 -k AGT
+ -t 0.508333224 -s 5 -d -1 -p ack -e 40 -c 2 -a 0 -i 1 -k AGT 
- -t 0.508333224 -s 5 -d -1 -p ack -e 40 -c 2 -a 0 -i 1 -k AGT
h -t 0.508333224 -s 5 -d -1 -p ack -e 40 -c 2 -a 0 -i 1 -k AGT
+ -t 0.508333224 -s 5 -d 1 -p ack -e 40 -c 2 -a 0 -i 1 -k RTR 
- -t 0.508333224 -s 5 -d 1 -p ack -e 40 -c 2 -a 0 -i 1 -k RTR
h -t 0.508333224 -s 5 -d 1 -p ack -e 40 -c 2 -a 0 -i 1 -k RTR
+ -t 0.508980149 -s 3 -d -1 -p AODV -e 48 -c 2 -a 0 -i 0 -k RTR 
- -t 0.508980149 -s 3 -d -1 -p AODV -e 48 -c 2 -a 0 -i 0 -k RTR
h -t 0.508980149 -s 3 -d -1 -p AODV -e 48 -c 2 -a 0 -i 0 -k RTR
r -t 0.510298568 -s 1 -d 1 -p ack -e 40 -c 2 -a 0 -i 1 -k AGT
+ -t 0.510298568 -s 1 -d -1 -p tcp -e 1040 -c 2 -a 0 -i 2 -k AGT 
- -t 0.510298568 -s 1 -d -1 -p tcp -e 1040 -c 2 -a 0 -i 2 -k AGT
h -t 0.510298568 -s 1 -d -1 -p tcp -e 1040 -c 2 -a 0 -i 2 -k AGT
+ -t 0.510298568 -s 1 -d -1 -p tcp -e 1040 -c 2 -a 0 -i 3 -k AGT 
- -t 0.510298568 -s 1 -d -1 -p tcp -e 1040 -c 2 -a 0 -i 3 -k AGT
h -t 0.510298568 -s 1 -d -1 -p tcp -e 1040 -c 2 -a 0 -i 3 -k AGT
+ -t 0.510298568 -s 1 -d 5 -p tcp -e 1040 -c 2 -a 0 -i 2 -k RTR 
- -t 0.510298568 -s 1 -d 5 -p tcp -e 1040 -c 2 -a 0 -i 2 -k RTR
h -t 0.510298568 -s 1 -d 5 -p tcp -e 1040 -c 2 -a 0 -i 2 -k RTR
+ -t 0.510298568 -s 1 -d 5 -p tcp -e 1040 -c 2 -a 0 -i 3 -k RTR 
- -t 0.510298568 -s 1 -d 5 -p tcp -e 1040 -c 2 -a 0 -i 3 -k RTR
h -t 0.510298568 -s 1 -d 5 -p tcp -e 1040 -c 2 -a 0 -i 3 -k RTR
r -t 0.511531269 -s 3 -d -1 -p AODV -e 48 -c 2 -a 0 -i 0 -k RTR
r -t 0.511571373 -s 5 -d -1 -p AODV -e 48 -c 2 -a 0 -i 0 -k RTR
r -t 0.512529568 -s 2 -d -1 -p AODV -e 48 -c 2 -a 0 -i 0 -k RTR
r -t 0.512529863 -s 1 -d -1 -p AODV -e 48 -c 2 -a 0 -i 0 -k RTR
r -t 0.512529879 -s 4 -d -1 -p AODV -e 48 -c 2 -a 0 -i 0 -k RTR
r -t 0.522241208 -s 5 -d 5 -p tcp -e 1040 -c 2 -a 0 -i 2 -k AGT
+ -t 0.522241208 -s 5 -d -1 -p ack -e 40 -c 2 -a 0 -i 4 -k AGT 
- -t 0.522241208 -s 5 -d -1 -p ack -e 40 -c 2 -a 0 -i 4 -k AGT
h -t 0.522241208 -s 5 -d -1 -p ack -e 40 -c 2 -a 0 -i 4 -k AGT
+ -t 0.522241208 -s 5 -d 1 -p ack -e 40 -c 2 -a 0 -i 4 -k RTR 
- -t 0.522241208 -s 5 -d 1 -p ack -e 40 -c 2 -a 0 -i 4 -k RTR
h -t 0.522241208 -s 5 -d 1 -p ack -e 40 -c 2 -a 0 -i 4 -k RTR
r -t 0.524266552 -s 1 -d 1 -p ack -e 40 -c 2 -a 0 -i 4 -k AGT
+ -t 0.524266552 -s 1 -d -1 -p tcp -e 1040 -c 2 -a 0 -i 5 -k AGT 
- -t 0.524266552 -s 1 -d -1 -p tcp -e 1040 -c 2 -a 0 -i 5 -k AGT
h -t 0.524266552 -s 1 -d -1 -p tcp -e 1040 -c 2 -a 0 -i 5 -k AGT
+ -t 0.524266552 -s 1 -d -1 -p tcp -e 1040 -c 2 -a 0 -i 6 -k AGT 
- -t 0.524266552 -s 1 -d -1 -p tcp -e 1040 -c 2 -a 0 -i 6 -k AGT
h -t 0.524266552 -s 1 -d -1 -p tcp -e 1040 -c 2 -a 0 -i 6 -k AGT
+ -t 0.524266552 -s 1 -d 5 -p tcp -e 1040 -c 2 -a 0 -i 5 -k RTR 
- -t 0.524266552 -s 1 -d 5 -p tcp -e 1040 -c 2 -a 0 -i 5 -k RTR
h -t 0.524266552 -s 1 -d 5 -p tcp -e 1040 -c 2 -a 0 -i 5 -k RTR
+ -t 0.524266552 -s 1 -d 5 -p tcp -e 1040 -c 2 -a 0 -i 6 -k RTR 
- -t 0.524266552 -s 1 -d 5 -p tcp -e 1040 -c 2 -a 0 -i 6 -k RTR
h -t 0.524266552 -s 1 -d 5 -p tcp -e 1040 -c 2 -a 0 -i 6 -k RTR
r -t 0.534131897 -s 5 -d 5 -p tcp -e 1040 -c 2 -a 0 -i 3 -k AGT
+ -t 0.534131897 -s 5 -d -1 -p ack -e 40 -c 2 -a 0 -i 7 -k AGT 
- -t 0.534131897 -s 5 -d -1 -p ack -e 40 -c 2 -a 0 -i 7 -k AGT
h -t 0.534131897 -s 5 -d -1 -p ack -e 40 -c 2 -a 0 -i 7 -k AGT
+ -t 0.534131897 -s 5 -d 1 -p ack -e 40 -c 2 -a 0 -i 7 -k RTR 
- -t 0.534131897 -s 5 -d 1 -p ack -e 40 -c 2 -a 0 -i 7 -k RTR
h -t 0.534131897 -s 5 -d 1 -p ack -e 40 -c 2 -a 0 -i 7 -k RTR
r -t 0.536197241 -s 1 -d 1 -p ack -e 40 -c 2 -a 0 -i 7 -k AGT
+ -t 0.536197241 -s 1 -d -1 -p tcp -e 1040 -c 2 -a 0 -i 8 -k AGT 
- -t 0.536197241 -s 1 -d -1 -p tcp -e 1040 -c 2 -a 0 -i 8 -k AGT
h -t 0.536197241 -s 1 -d -1 -p tcp -e 1040 -c 2 -a 0 -i 8 -k AGT
+ -t 0.536197241 -s 1 -d -1 -p tcp -e 1040 -c 2 -a 0 -i 9 -k AGT 
- -t 0.536197241 -s 1 -d -1 -p tcp -e 1040 -c 2 -a 0 -i 9 -k AGT
h -t 0.536197241 -s 1 -d -1 -p tcp -e 1040 -c 2 -a 0 -i 9 -k AGT
+ -t 0.536197241 -s 1 -d 5 -p tcp -e 1040 -c 2 -a 0 -i 8 -k RTR 
- -t 0.536197241 -s 1 -d 5 -p tcp -e 1040 -c 2 -a 0 -i 8 -k RTR
h -t 0.536197241 -s 1 -d 5 -p tcp -e 1040 -c 2 -a 0 -i 8 -k RTR
+ -t 0.536197241 -s 1 -d 5 -p tcp -e 1040 -c 2 -a 0 -i 9 -k RTR 
- -t 0.536197241 -s 1 -d 5 -p tcp -e 1040 -c 2 -a 0 -i 9 -k RTR
h -t 0.536197241 -s 1 -d 5 -p tcp -e 1040 -c 2 -a 0 -i 9 -k RTR
r -t 0.546222585 -s 5 -d 5 -p tcp -e 1040 -c 2 -a 0 -i 5 -k AGT
+ -t 0.546222585 -s 5 -d -1 -p ack -e 40 -c 2 -a 0 -i 10 -k AGT 
- -t 0.546222585 -s 5 -d -1 -p ack -e 40 -c 2 -a 0 -i 10 -k AGT
h -t 0.546222585 -s 5 -d -1 -p ack -e 40 -c 2 -a 0 -i 10 -k AGT
+ -t 0.546222585 -s 5 -d 1 -p ack -e 40 -c 2 -a 0 -i 10 -k RTR 
- -t 0.546222585 -s 5 -d 1 -p ack -e 40 -c 2 -a 0 -i 10 -k RTR
h -t 0.546222585 -s 5 -d 1 -p ack -e 40 -c 2 -a 0 -i 10 -k RTR
r -t 0.556448378 -s 5 -d 5 -p tcp -e 1040 -c 2 -a 0 -i 6 -k AGT
+ -t 0.556448378 -s 5 -d -1 -p ack -e 40 -c 2 -a 0 -i 11 -k AGT 
- -t 0.556448378 -s 5 -d -1 -p ack -e 40 -c 2 -a 0 -i 11 -k AGT
h -t 0.556448378 -s 5 -d -1 -p ack -e 40 -c 2 -a 0 -i 11 -k AGT
+ -t 0.556448378 -s 5 -d 1 -p ack -e 40 -c 2 -a 0 -i 11 -k RTR 
- -t 0.556448378 -s 5 -d 1 -p ack -e 40 -c 2 -a 0 -i 11 -k RTR
h -t 0.556448378 -s 5 -d 1 -p ack -e 40 -c 2 -a 0 -i 11 -k RTR
r -t 0.558453722 -s 1 -d 1 -p ack -e 40 -c 2 -a 0 -i 10 -k AGT
+ -t 0.558453722 -s 1 -d -1 -p tcp -e 1040 -c 2 -a 0 -i 12 -k AGT 
- -t 0.558453722 -s 1 -d -1 -p tcp -e 1040 -c 2 -a 0 -i 12 -k AGT
h -t 0.558453722 -s 1 -d -1 -p tcp -e 1040 -c 2 -a 0 -i 12 -k AGT
+ -t 0.558453722 -s 1 -d -1 -p tcp -e 1040 -c 2 -a 0 -i 13 -k AGT 
- -t 0.558453722 -s 1 -d -1 -p tcp -e 1040 -c 2 -a 0 -i 13 -k AGT
h -t 0.558453722 -s 1 -d -1 -p tcp -e 1040 -c 2 -a 0 -i 13 -k AGT
+ -t 0.558453722 -s 1 -d 5 -p tcp -e 1040 -c 2 -a 0 -i 12 -k RTR 
- -t 0.558453722 -s 1 -d 5 -p tcp -e 1040 -c 2 -a 0 -i 12 -k RTR
h -t 0.558453722 -s 1 -d 5 -p tcp -e 1040 -c 2 -a 0 -i 12 -k RTR
+ -t 0.558453722 -s 1 -d 5 -p tcp -e 1040 -c 2 -a 0 -i 13 -k RTR 
- -t 0.558453722 -s 1 -d 5 -p tcp -e 1040 -c 2 -a 0 -i 13 -k RTR
h -t 0.558453722 -s 1 -d 5 -p tcp -e 1040 -c 2 -a 0 -i 13 -k RTR
r -t 0.560639515 -s 1 -d 1 -p ack -e 40 -c 2 -a 0 -i 11 -k AGT
+ -t 0.560639515 -s 1 -d -1 -p tcp -e 1040 -c 2 -a 0 -i 14 -k AGT 
- -t 0.560639515 -s 1 -d -1 -p tcp -e 1040 -c 2 -a 0 -i 14 -k AGT
h -t 0.560639515 -s 1 -d -1 -p tcp -e 1040 -c 2 -a 0 -i 14 -k AGT
+ -t 0.560639515 -s 1 -d -1 -p tcp -e 1040 -c 2 -a 0 -i 15 -k AGT 
- -t 0.560639515 -s 1 -d -1 -p tcp -e 1040 -c 2 -a 0 -i 15 -k AGT
h -t 0.560639515 -s 1 -d -1 -p tcp -e 1040 -c 2 -a 0 -i 15 -k AGT
+ -t 0.560639515 -s 1 -d 5 -p tcp -e 1040 -c 2 -a 0 -i 14 -k RTR 
- -t 0.560639515 -s 1 -d 5 -p tcp -e 1040 -c 2 -a 0 -i 14 -k RTR
h -t 0.560639515 -s 1 -d 5 -p tcp -e 1040 -c 2 -a 0 -i 14 -k RTR
+ -t 0.560639515 -s 1 -d 5 -p tcp -e 1040 -c 2 -a 0 -i 15 -k RTR 
- -t 0.560639515 -s 1 -d 5 -p tcp -e 1040 -c 2 -a 0 -i 15 -k RTR
h -t 0.560639515 -s 1 -d 5 -p tcp -e 1040 -c 2 -a 0 -i 15 -k RTR
r -t 0.570484859 -s 5 -d 5 -p tcp -e 1040 -c 2 -a 0 -i 8 -k AGT
+ -t 0.570484859 -s 5 -d -1 -p ack -e 40 -c 2 -a 0 -i 16 -k AGT 
- -t 0.570484859 -s 5 -d -1 -p ack -e 40 -c 2 -a 0 -i 16 -k AGT
h -t 0.570484859 -s 5 -d -1 -p ack -e 40 -c 2 -a 0 -i 16 -k AGT
+ -t 0.570484859 -s 5 -d 1 -p ack -e 40 -c 2 -a 0 -i 16 -k RTR 
- -t 0.570484859 -s 5 -d 1 -p ack -e 40 -c 2 -a 0 -i 16 -k RTR
h -t 0.570484859 -s 5 -d 1 -p ack -e 40 -c 2 -a 0 -i 16 -k RTR
r -t 0.572330204 -s 1 -d 1 -p ack -e 40 -c 2 -a 0 -i 16 -k AGT
+ -t 0.572330204 -s 1 -d -1 -p tcp -e 1040 -c 2 -a 0 -i 17 -k AGT 
- -t 0.572330204 -s 1 -d -1 -p tcp -e 1040 -c 2 -a 0 -i 17 -k AGT
h -t 0.572330204 -s 1 -d -1 -p tcp -e 1040 -c 2 -a 0 -i 17 -k AGT
+ -t 0.572330204 -s 1 -d -1 -p tcp -e 1040 -c 2 -a 0 -i 18 -k AGT 
- -t 0.572330204 -s 1 -d -1 -p tcp -e 1040 -c 2 -a 0 -i 18 -k AGT
h -t 0.572330204 -s 1 -d -1 -p tcp -e 1040 -c 2 -a 0 -i 18 -k AGT
+ -t 0.572330204 -s 1 -d 5 -p tcp -e 1040 -c 2 -a 0 -i 17 -k RTR 
- -t 0.572330204 -s 1 -d 5 -p tcp -e 1040 -c 2 -a 0 -i 17 -k RTR
h -t 0.572330204 -s 1 -d 5 -p tcp -e 1040 -c 2 -a 0 -i 17 -k RTR
+ -t 0.572330204 -s 1 -d 5 -p tcp -e 1040 -c 2 -a 0 -i 18 -k RTR 
- -t 0.572330204 -s 1 -d 5 -p tcp -e 1040 -c 2 -a 0 -i 18 -k RTR
h -t 0.572330204 -s 1 -d 5 -p tcp -e 1040 -c 2 -a 0 -i 18 -k RTR
r -t 0.582435548 -s 5 -d 5 -p tcp -e 1040 -c 2 -a 0 -i 9 -k AGT
+ -t 0.582435548 -s 5 -d -1 -p ack -e 40 -c 2 -a 0 -i 19 -k AGT 
- -t 0.582435548 -s 5 -d -1 -p ack -e 40 -c 2 -a 0 -i 19 -k AGT
h -t 0.582435548 -s 5 -d -1 -p ack -e 40 -c 2 -a 0 -i 19 -k AGT
+ -t 0.582435548 -s 5 -d 1 -p ack -e 40 -c 2 -a 0 -i 19 -k RTR 
- -t 0.582435548 -s 5 -d 1 -p ack -e 40 -c 2 -a 0 -i 19 -k RTR
h -t 0.582435548 -s 5 -d 1 -p ack -e 40 -c 2 -a 0 -i 19 -k RTR
r -t 0.584340892 -s 1 -d 1 -p ack -e 40 -c 2 -a 0 -i 19 -k AGT
+ -t 0.584340892 -s 1 -d -1 -p tcp -e 1040 -c 2 -a 0 -i 20 -k AGT 
- -t 0.584340892 -s 1 -d -1 -p tcp -e 1040 -c 2 -a 0 -i 20 -k AGT
h -t 0.584340892 -s 1 -d -1 -p tcp -e 1040 -c 2 -a 0 -i 20 -k AGT
+ -t 0.584340892 -s 1 -d -1 -p tcp -e 1040 -c 2 -a 0 -i 21 -k AGT 
- -t 0.584340892 -s 1 -d -1 -p tcp -e 1040 -c 2 -a 0 -i 21 -k AGT
h -t 0.584340892 -s 1 -d -1 -p tcp -e 1040 -c 2 -a 0 -i 21 -k AGT
+ -t 0.584340892 -s 1 -d 5 -p tcp -e 1040 -c 2 -a 0 -i 20 -k RTR 
- -t 0.584340892 -s 1 -d 5 -p tcp -e 1040 -c 2 -a 0 -i 20 -k RTR
h -t 0.584340892 -s 1 -d 5 -p tcp -e 1040 -c 2 -a 0 -i 20 -k RTR
+ -t 0.584340892 -s 1 -d 5 -p tcp -e 1040 -c 2 -a 0 -i 21 -k RTR 
- -t 0.584340892 -s 1 -d 5 -p tcp -e 1040 -c 2 -a 0 -i 21 -k RTR
h -t 0.584340892 -s 1 -d 5 -p tcp -e 1040 -c 2 -a 0 -i 21 -k RTR
r -t 0.594246237 -s 5 -d 5 -p tcp -e 1040 -c 2 -a 0 -i 12 -k AGT
+ -t 0.594246237 -s 5 -d -1 -p ack -e 40 -c 2 -a 0 -i 22 -k AGT 
- -t 0.594246237 -s 5 -d -1 -p ack -e 40 -c 2 -a 0 -i 22 -k AGT
h -t 0.594246237 -s 5 -d -1 -p ack -e 40 -c 2 -a 0 -i 22 -k AGT
+ -t 0.594246237 -s 5 -d 1 -p ack -e 40 -c 2 -a 0 -i 22 -k RTR 
- -t 0.594246237 -s 5 -d 1 -p ack -e 40 -c 2 -a 0 -i 22 -k RTR
h -t 0.594246237 -s 5 -d 1 -p ack -e 40 -c 2 -a 0 -i 22 -k RTR
r -t 0.604272029 -s 5 -d 5 -p tcp -e 1040 -c 2 -a 0 -i 13 -k AGT
+ -t 0.604272029 -s 5 -d -1 -p ack -e 40 -c 2 -a 0 -i 23 -k AGT 
- -t 0.604272029 -s 5 -d -1 -p ack -e 40 -c 2 -a 0 -i 23 -k AGT
h -t 0.604272029 -s 5 -d -1 -p ack -e 40 -c 2 -a 0 -i 23 -k AGT
+ -t 0.604272029 -s 5 -d 1 -p ack -e 40 -c 2 -a 0 -i 23 -k RTR 
- -t 0.604272029 -s 5 -d 1 -p ack -e 40 -c 2 -a 0 -i 23 -k RTR
h -t 0.604272029 -s 5 -d 1 -p ack -e 40 -c 2 -a 0 -i 23 -k RTR
r -t 0.606177374 -s 1 -d 1 -p ack -e 40 -c 2 -a 0 -i 22 -k AGT
+ -t 0.606177374 -s 1 -d -1 -p tcp -e 1040 -c 2 -a 0 -i 24 -k AGT 
- -t 0.606177374 -s 1 -d -1 -p tcp -e 1040 -c 2 -a 0 -i 24 -k AGT
h -t 0.606177374 -s 1 -d -1 -p tcp -e 1040 -c 2 -a 0 -i 24 -k AGT
+ -t 0.606177374 -s 1 -d -1 -p tcp -e 1040 -c 2 -a 0 -i 25 -k AGT 
- -t 0.606177374 -s 1 -d -1 -p tcp -e 1040 -c 2 -a 0 -i 25 -k AGT
h -t 0.606177374 -s 1 -d -1 -p tcp -e 1040 -c 2 -a 0 -i 25 -k AGT
+ -t 0.606177374 -s 1 -d 5 -p tcp -e 1040 -c 2 -a 0 -i 24 -k RTR 
- -t 0.606177374 -s 1 -d 5 -p tcp -e 1040 -c 2 -a 0 -i 24 -k RTR
h -t 0.606177374 -s 1 -d 5 -p tcp -e 1040 -c 2 -a 0 -i 24 -k RTR
+ -t 0.606177374 -s 1 -d 5 -p tcp -e 1040 -c 2 -a 0 -i 25 -k RTR 
- -t 0.606177374 -s 1 -d 5 -p tcp -e 1040 -c 2 -a 0 -i 25 -k RTR
h -t 0.606177374 -s 1 -d 5 -p tcp -e 1040 -c 2 -a 0 -i 25 -k RTR
r -t 0.616042718 -s 5 -d 5 -p tcp -e 1040 -c 2 -a 0 -i 14 -k AGT
+ -t 0.616042718 -s 5 -d -1 -p ack -e 40 -c 2 -a 0 -i 26 -k AGT 
- -t 0.616042718 -s 5 -d -1 -p ack -e 40 -c 2 -a 0 -i 26 -k AGT
h -t 0.616042718 -s 5 -d -1 -p ack -e 40 -c 2 -a 0 -i 26 -k AGT
+ -t 0.616042718 -s 5 -d 1 -p ack -e 40 -c 2 -a 0 -i 26 -k RTR 
- -t 0.616042718 -s 5 -d 1 -p ack -e 40 -c 2 -a 0 -i 26 -k RTR
h -t 0.616042718 -s 5 -d 1 -p ack -e 40 -c 2 -a 0 -i 26 -k RTR
r -t 0.626088511 -s 5 -d 5 -p tcp -e 1040 -c 2 -a 0 -i 15 -k AGT
+ -t 0.626088511 -s 5 -d -1 -p ack -e 40 -c 2 -a 0 -i 27 -k AGT 
- -t 0.626088511 -s 5 -d -1 -p ack -e 40 -c 2 -a 0 -i 27 -k AGT
h -t 0.626088511 -s 5 -d -1 -p ack -e 40 -c 2 -a 0 -i 27 -k AGT
+ -t 0.626088511 -s 5 -d 1 -p ack -e 40 -c 2 -a 0 -i 27 -k RTR 
- -t 0.626088511 -s 5 -d 1 -p ack -e 40 -c 2 -a 0 -i 27 -k RTR
h -t 0.626088511 -s 5 -d 1 -p ack -e 40 -c 2 -a 0 -i 27 -k RTR
r -t 0.636114303 -s 5 -d 5 -p tcp -e 1040 -c 2 -a 0 -i 17 -k AGT
+ -t 0.636114303 -s 5 -d -1 -p ack -e 40 -c 2 -a 0 -i 28 -k AGT 
- -t 0.636114303 -s 5 -d -1 -p ack -e 40 -c 2 -a 0 -i 28 -k AGT
h -t 0.636114303 -s 5 -d -1 -p ack -e 40 -c 2 -a 0 -i 28 -k AGT
+ -t 0.636114303 -s 5 -d 1 -p ack -e 40 -c 2 -a 0 -i 28 -k RTR 
- -t 0.636114303 -s 5 -d 1 -p ack -e 40 -c 2 -a 0 -i 28 -k RTR
h -t 0.636114303 -s 5 -d 1 -p ack -e 40 -c 2 -a 0 -i 28 -k RTR
r -t 0.637999648 -s 1 -d 1 -p ack -e 40 -c 2 -a 0 -i 23 -k AGT
+ -t 0.637999648 -s 1 -d -1 -p tcp -e 1040 -c 2 -a 0 -i 29 -k AGT 
- -t 0.637999648 -s 1 -d -1 -p tcp -e 1040 -c 2 -a 0 -i 29 -k AGT
h -t 0.637999648 -s 1 -d -1 -p tcp -e 1040 -c 2 -a 0 -i 29 -k AGT
+ -t 0.637999648 -s 1 -d -1 -p tcp -e 1040 -c 2 -a 0 -i 30 -k AGT 
- -t 0.637999648 -s 1 -d -1 -p tcp -e 1040 -c 2 -a 0 -i 30 -k AGT
h -t 0.637999648 -s 1 -d -1 -p tcp -e 1040 -c 2 -a 0 -i 30 -k AGT
+ -t 0.637999648 -s 1 -d 5 -p tcp -e 1040 -c 2 -a 0 -i 29 -k RTR 
- -t 0.637999648 -s 1 -d 5 -p tcp -e 1040 -c 2 -a 0 -i 29 -k RTR
h -t 0.637999648 -s 1 -d 5 -p tcp -e 1040 -c 2 -a 0 -i 29 -k RTR
+ -t 0.637999648 -s 1 -d 5 -p tcp -e 1040 -c 2 -a 0 -i 30 -k RTR 
- -t 0.637999648 -s 1 -d 5 -p tcp -e 1040 -c 2 -a 0 -i 30 -k RTR
h -t 0.637999648 -s 1 -d 5 -p tcp -e 1040 -c 2 -a 0 -i 30 -k RTR
r -t 0.639885440 -s 1 -d 1 -p ack -e 40 -c 2 -a 0 -i 26 -k AGT
+ -t 0.639885440 -s 1 -d -1 -p tcp -e 1040 -c 2 -a 0 -i 31 -k AGT 
- -t 0.639885440 -s 1 -d -1 -p tcp -e 1040 -c 2 -a 0 -i 31 -k AGT
h -t 0.639885440 -s 1 -d -1 -p tcp -e 1040 -c 2 -a 0 -i 31 -k AGT
+ -t 0.639885440 -s 1 -d -1 -p tcp -e 1040 -c 2 -a 0 -i 32 -k AGT 
- -t 0.639885440 -s 1 -d -1 -p tcp -e 1040 -c 2 -a 0 -i 32 -k AGT
h -t 0.639885440 -s 1 -d -1 -p tcp -e 1040 -c 2 -a 0 -i 32 -k AGT
+ -t 0.639885440 -s 1 -d 5 -p tcp -e 1040 -c 2 -a 0 -i 31 -k RTR 
- -t 0.639885440 -s 1 -d 5 -p tcp -e 1040 -c 2 -a 0 -i 31 -k RTR
h -t 0.639885440 -s 1 -d 5 -p tcp -e 1040 -c 2 -a 0 -i 31 -k RTR
+ -t 0.639885440 -s 1 -d 5 -p tcp -e 1040 -c 2 -a 0 -i 32 -k RTR 
- -t 0.639885440 -s 1 -d 5 -p tcp -e 1040 -c 2 -a 0 -i 32 -k RTR
h -t 0.639885440 -s 1 -d 5 -p tcp -e 1040 -c 2 -a 0 -i 32 -k RTR
r -t 0.641831233 -s 1 -d 1 -p ack -e 40 -c 2 -a 0 -i 27 -k AGT
+ -t 0.641831233 -s 1 -d -1 -p tcp -e 1040 -c 2 -a 0 -i 33 -k AGT 
- -t 0.641831233 -s 1 -d -1 -p tcp -e 1040 -c 2 -a 0 -i 33 -k AGT
h -t 0.641831233 -s 1 -d -1 -p tcp -e 1040 -c 2 -a 0 -i 33 -k AGT
+ -t 0.641831233 -s 1 -d -1 -p tcp -e 1040 -c 2 -a 0 -i 34 -k AGT 
- -t 0.641831233 -s 1 -d -1 -p tcp -e 1040 -c 2 -a 0 -i 34 -k AGT
h -t 0.641831233 -s 1 -d -1 -p tcp -e 1040 -c 2 -a 0 -i 34 -k AGT
+ -t 0.641831233 -s 1 -d 5 -p tcp -e 1040 -c 2 -a 0 -i 33 -k RTR 
- -t 0.641831233 -s 1 -d 5 -p tcp -e 1040 -c 2 -a 0 -i 33 -k RTR
h -t 0.641831233 -s 1 -d 5 -p tcp -e 1040 -c 2 -a 0 -i 33 -k RTR
+ -t 0.641831233 -s 1 -d 5 -p tcp -e 1040 -c 2 -a 0 -i 34 -k RTR 
- -t 0.641831233 -s 1 -d 5 -p tcp -e 1040 -c 2 -a 0 -i 34 -k RTR
h -t 0.641831233 -s 1 -d 5 -p tcp -e 1040 -c 2 -a 0 -i 34 -k RTR
r -t 0.644803025 -s 1 -d 1 -p ack -e 40 -c 2 -a 0 -i 28 -k AGT
+ -t 0.644803025 -s 1 -d -1 -p tcp -e 1040 -c 2 -a 0 -i 35 -k AGT 
- -t 0.644803025 -s 1 -d -1 -p tcp -e 1040 -c 2 -a 0 -i 35 -k AGT
h -t 0.644803025 -s 1 -d -1 -p tcp -e 1040 -c 2 -a 0 -i 35 -k AGT
+ -t 0.644803025 -s 1 -d -1 -p tcp -e 1040 -c 2 -a 0 -i 36 -k AGT 
- -t 0.644803025 -s 1 -d -1 -p tcp -e 1040 -c 2 -a 0 -i 36 -k AGT
h -t 0.644803025 -s 1 -d -1 -p tcp -e 1040 -c 2 -a 0 -i 36 -k AGT
+ -t 0.644803025 -s 1 -d 5 -p tcp -e 1040 -c 2 -a 0 -i 35 -k RTR 
- -t 0.644803025 -s 1 -d 5 -p tcp -e 1040 -c 2 -a 0 -i 35 -k RTR
h -t 0.644803025 -s 1 -d 5 -p tcp -e 1040 -c 2 -a 0 -i 35 -k RTR
+ -t 0.644803025 -s 1 -d 5 -p tcp -e 1040 -c 2 -a 0 -i 36 -k RTR 
- -t 0.644803025 -s 1 -d 5 -p tcp -e 1040 -c 2 -a 0 -i 36 -k RTR
h -t 0.644803025 -s 1 -d 5 -p tcp -e 1040 -c 2 -a 0 -i 36 -k RTR
r -t 0.655268369 -s 5 -d 5 -p tcp -e 1040 -c 2 -a 0 -i 18 -k AGT
+ -t 0.655268369 -s 5 -d -1 -p ack -e 40 -c 2 -a 0 -i 37 -k AGT 
- -t 0.655268369 -s 5 -d -1 -p ack -e 40 -c 2 -a 0 -i 37 -k AGT
h -t 0.655268369 -s 5 -d -1 -p ack -e 40 -c 2 -a 0 -i 37 -k AGT
+ -t 0.655268369 -s 5 -d 1 -p ack -e 40 -c 2 -a 0 -i 37 -k RTR 
- -t 0.655268369 -s 5 -d 1 -p ack -e 40 -c 2 -a 0 -i 37 -k RTR
h -t 0.655268369 -s 5 -d 1 -p ack -e 40 -c 2 -a 0 -i 37 -k RTR
r -t 0.657373714 -s 1 -d 1 -p ack -e 40 -c 2 -a 0 -i 37 -k AGT
+ -t 0.657373714 -s 1 -d -1 -p tcp -e 1040 -c 2 -a 0 -i 38 -k AGT 
- -t 0.657373714 -s 1 -d -1 -p tcp -e 1040 -c 2 -a 0 -i 38 -k AGT
h -t 0.657373714 -s 1 -d -1 -p tcp -e 1040 -c 2 -a 0 -i 38 -k AGT
+ -t 0.657373714 -s 1 -d -1 -p tcp -e 1040 -c 2 -a 0 -i 39 -k AGT 
- -t 0.657373714 -s 1 -d -1 -p tcp -e 1040 -c 2 -a 0 -i 39 -k AGT
h -t 0.657373714 -s 1 -d -1 -p tcp -e 1040 -c 2 -a 0 -i 39 -k AGT
+ -t 0.657373714 -s 1 -d 5 -p tcp -e 1040 -c 2 -a 0 -i 38 -k RTR 
- -t 0.657373714 -s 1 -d 5 -p tcp -e 1040 -c 2 -a 0 -i 38 -k RTR
h -t 0.657373714 -s 1 -d 5 -p tcp -e 1040 -c 2 -a 0 -i 38 -k RTR
+ -t 0.657373714 -s 1 -d 5 -p tcp -e 1040 -c 2 -a 0 -i 39 -k RTR 
- -t 0.657373714 -s 1 -d 5 -p tcp -e 1040 -c 2 -a 0 -i 39 -k RTR
h -t 0.657373714 -s 1 -d 5 -p tcp -e 1040 -c 2 -a 0 -i 39 -k RTR
r -t 0.667399058 -s 5 -d 5 -p tcp -e 1040 -c 2 -a 0 -i 20 -k AGT
+ -t 0.667399058 -s 5 -d -1 -p ack -e 40 -c 2 -a 0 -i 40 -k AGT 
- -t 0.667399058 -s 5 -d -1 -p ack -e 40 -c 2 -a 0 -i 40 -k AGT
h -t 0.667399058 -s 5 -d -1 -p ack -e 40 -c 2 -a 0 -i 40 -k AGT
+ -t 0.667399058 -s 5 -d 1 -p ack -e 40 -c 2 -a 0 -i 40 -k RTR 
- -t 0.667399058 -s 5 -d 1 -p ack -e 40 -c 2 -a 0 -i 40 -k RTR
h -t 0.667399058 -s 5 -d 1 -p ack -e 40 -c 2 -a 0 -i 40 -k RTR
r -t 0.669444403 -s 1 -d 1 -p ack -e 40 -c 2 -a 0 -i 40 -k AGT
+ -t 0.669444403 -s 1 -d -1 -p tcp -e 1040 -c 2 -a 0 -i 41 -k AGT 
- -t 0.669444403 -s 1 -d -1 -p tcp -e 1040 -c 2 -a 0 -i 41 -k AGT
h -t 0.669444403 -s 1 -d -1 -p tcp -e 1040 -c 2 -a 0 -i 41 -k AGT
+ -t 0.669444403 -s 1 -d -1 -p tcp -e 1040 -c 2 -a 0 -i 42 -k AGT 
- -t 0.669444403 -s 1 -d -1 -p tcp -e 1040 -c 2 -a 0 -i 42 -k AGT
h -t 0.669444403 -s 1 -d -1 -p tcp -e 1040 -c 2 -a 0 -i 42 -k AGT
+ -t 0.669444403 -s 1 -d 5 -p tcp -e 1040 -c 2 -a 0 -i 41 -k RTR 
- -t 0.669444403 -s 1 -d 5 -p tcp -e 1040 -c 2 -a 0 -i 41 -k RTR
h -t 0.669444403 -s 1 -d 5 -p tcp -e 1040 -c 2 -a 0 -i 41 -k RTR
+ -t 0.669444403 -s 1 -d 5 -p tcp -e 1040 -c 2 -a 0 -i 42 -k RTR 
- -t 0.669444403 -s 1 -d 5 -p tcp -e 1040 -c 2 -a 0 -i 42 -k RTR
h -t 0.669444403 -s 1 -d 5 -p tcp -e 1040 -c 2 -a 0 -i 42 -k RTR
r -t 0.679389747 -s 5 -d 5 -p tcp -e 1040 -c 2 -a 0 -i 21 -k AGT
+ -t 0.679389747 -s 5 -d -1 -p ack -e 40 -c 2 -a 0 -i 43 -k AGT 
- -t 0.679389747 -s 5 -d -1 -p ack -e 40 -c 2 -a 0 -i 43 -k AGT
h -t 0.679389747 -s 5 -d -1 -p ack -e 40 -c 2 -a 0 -i 43 -k AGT
+ -t 0.679389747 -s 5 -d 1 -p ack -e 40 -c 2 -a 0 -i 43 -k RTR 
- -t 0.679389747 -s 5 -d 1 -p ack -e 40 -c 2 -a 0 -i 43 -k RTR
h -t 0.679389747 -s 5 -d 1 -p ack -e 40 -c 2 -a 0 -i 43 -k RTR
r -t 0.681255091 -s 1 -d 1 -p ack -e 40 -c 2 -a 0 -i 43 -k AGT
+ -t 0.681255091 -s 1 -d -1 -p tcp -e 1040 -c 2 -a 0 -i 44 -k AGT 
- -t 0.681255091 -s 1 -d -1 -p tcp -e 1040 -c 2 -a 0 -i 44 -k AGT
h -t 0.681255091 -s 1 -d -1 -p tcp -e 1040 -c 2 -a 0 -i 44 -k AGT
+ -t 0.681255091 -s 1 -d -1 -p tcp -e 1040 -c 2 -a 0 -i 45 -k AGT 
- -t 0.681255091 -s 1 -d -1 -p tcp -e 1040 -c 2 -a 0 -i 45 -k AGT
h -t 0.681255091 -s 1 -d -1 -p tcp -e 1040 -c 2 -a 0 -i 45 -k AGT
+ -t 0.681255091 -s 1 -d 5 -p tcp -e 1040 -c 2 -a 0 -i 44 -k RTR 
- -t 0.681255091 -s 1 -d 5 -p tcp -e 1040 -c 2 -a 0 -i 44 -k RTR
h -t 0.681255091 -s 1 -d 5 -p tcp -e 1040 -c 2 -a 0 -i 44 -k RTR
+ -t 0.681255091 -s 1 -d 5 -p tcp -e 1040 -c 2 -a 0 -i 45 -k RTR 
- -t 0.681255091 -s 1 -d 5 -p tcp -e 1040 -c 2 -a 0 -i 45 -k RTR
h -t 0.681255091 -s 1 -d 5 -p tcp -e 1040 -c 2 -a 0 -i 45 -k RTR
r -t 0.691260436 -s 5 -d 5 -p tcp -e 1040 -c 2 -a 0 -i 24 -k AGT
+ -t 0.691260436 -s 5 -d -1 -p ack -e 40 -c 2 -a 0 -i 46 -k AGT 
- -t 0.691260436 -s 5 -d -1 -p ack -e 40 -c 2 -a 0 -i 46 -k AGT
h -t 0.691260436 -s 5 -d -1 -p ack -e 40 -c 2 -a 0 -i 46 -k AGT
+ -t 0.691260436 -s 5 -d 1 -p ack -e 40 -c 2 -a 0 -i 46 -k RTR 
- -t 0.691260436 -s 5 -d 1 -p ack -e 40 -c 2 -a 0 -i 46 -k RTR
h -t 0.691260436 -s 5 -d 1 -p ack -e 40 -c 2 -a 0 -i 46 -k RTR
r -t 0.701086228 -s 5 -d 5 -p tcp -e 1040 -c 2 -a 0 -i 25 -k AGT
+ -t 0.701086228 -s 5 -d -1 -p ack -e 40 -c 2 -a 0 -i 47 -k AGT 
- -t 0.701086228 -s 5 -d -1 -p ack -e 40 -c 2 -a 0 -i 47 -k AGT
h -t 0.701086228 -s 5 -d -1 -p ack -e 40 -c 2 -a 0 -i 47 -k AGT
+ -t 0.701086228 -s 5 -d 1 -p ack -e 40 -c 2 -a 0 -i 47 -k RTR 
- -t 0.701086228 -s 5 -d 1 -p ack -e 40 -c 2 -a 0 -i 47 -k RTR
h -t 0.701086228 -s 5 -d 1 -p ack -e 40 -c 2 -a 0 -i 47 -k RTR
r -t 0.711152021 -s 5 -d 5 -p tcp -e 1040 -c 2 -a 0 -i 29 -k AGT
+ -t 0.711152021 -s 5 -d -1 -p ack -e 40 -c 2 -a 0 -i 48 -k AGT 
- -t 0.711152021 -s 5 -d -1 -p ack -e 40 -c 2 -a 0 -i 48 -k AGT
h -t 0.711152021 -s 5 -d -1 -p ack -e 40 -c 2 -a 0 -i 48 -k AGT
+ -t 0.711152021 -s 5 -d 1 -p ack -e 40 -c 2 -a 0 -i 48 -k RTR 
- -t 0.711152021 -s 5 -d 1 -p ack -e 40 -c 2 -a 0 -i 48 -k RTR
h -t 0.711152021 -s 5 -d 1 -p ack -e 40 -c 2 -a 0 -i 48 -k RTR
r -t 0.713037365 -s 1 -d 1 -p ack -e 40 -c 2 -a 0 -i 46 -k AGT
+ -t 0.713037365 -s 1 -d -1 -p tcp -e 1040 -c 2 -a 0 -i 49 -k AGT 
- -t 0.713037365 -s 1 -d -1 -p tcp -e 1040 -c 2 -a 0 -i 49 -k AGT
h -t 0.713037365 -s 1 -d -1 -p tcp -e 1040 -c 2 -a 0 -i 49 -k AGT
+ -t 0.713037365 -s 1 -d -1 -p tcp -e 1040 -c 2 -a 0 -i 50 -k AGT 
- -t 0.713037365 -s 1 -d -1 -p tcp -e 1040 -c 2 -a 0 -i 50 -k AGT
h -t 0.713037365 -s 1 -d -1 -p tcp -e 1040 -c 2 -a 0 -i 50 -k AGT
+ -t 0.713037365 -s 1 -d 5 -p tcp -e 1040 -c 2 -a 0 -i 49 -k RTR 
- -t 0.713037365 -s 1 -d 5 -p tcp -e 1040 -c 2 -a 0 -i 49 -k RTR
h -t 0.713037365 -s 1 -d 5 -p tcp -e 1040 -c 2 -a 0 -i 49 -k RTR
+ -t 0.713037365 -s 1 -d 5 -p tcp -e 1040 -c 2 -a 0 -i 50 -k RTR 
- -t 0.713037365 -s 1 -d 5 -p tcp -e 1040 -c 2 -a 0 -i 50 -k RTR
h -t 0.713037365 -s 1 -d 5 -p tcp -e 1040 -c 2 -a 0 -i 50 -k RTR
r -t 0.723102710 -s 5 -d 5 -p tcp -e 1040 -c 2 -a 0 -i 30 -k AGT
+ -t 0.723102710 -s 5 -d -1 -p ack -e 40 -c 2 -a 0 -i 51 -k AGT 
- -t 0.723102710 -s 5 -d -1 -p ack -e 40 -c 2 -a 0 -i 51 -k AGT
h -t 0.723102710 -s 5 -d -1 -p ack -e 40 -c 2 -a 0 -i 51 -k AGT
+ -t 0.723102710 -s 5 -d 1 -p ack -e 40 -c 2 -a 0 -i 51 -k RTR 
- -t 0.723102710 -s 5 -d 1 -p ack -e 40 -c 2 -a 0 -i 51 -k RTR
h -t 0.723102710 -s 5 -d 1 -p ack -e 40 -c 2 -a 0 -i 51 -k RTR
r -t 0.732948502 -s 5 -d 5 -p tcp -e 1040 -c 2 -a 0 -i 31 -k AGT
+ -t 0.732948502 -s 5 -d -1 -p ack -e 40 -c 2 -a 0 -i 52 -k AGT 
- -t 0.732948502 -s 5 -d -1 -p ack -e 40 -c 2 -a 0 -i 52 -k AGT
h -t 0.732948502 -s 5 -d -1 -p ack -e 40 -c 2 -a 0 -i 52 -k AGT
+ -t 0.732948502 -s 5 -d 1 -p ack -e 40 -c 2 -a 0 -i 52 -k RTR 
- -t 0.732948502 -s 5 -d 1 -p ack -e 40 -c 2 -a 0 -i 52 -k RTR
h -t 0.732948502 -s 5 -d 1 -p ack -e 40 -c 2 -a 0 -i 52 -k RTR
r -t 0.734793847 -s 1 -d 1 -p ack -e 40 -c 2 -a 0 -i 47 -k AGT
+ -t 0.734793847 -s 1 -d -1 -p tcp -e 1040 -c 2 -a 0 -i 53 -k AGT 
- -t 0.734793847 -s 1 -d -1 -p tcp -e 1040 -c 2 -a 0 -i 53 -k AGT
h -t 0.734793847 -s 1 -d -1 -p tcp -e 1040 -c 2 -a 0 -i 53 -k AGT
+ -t 0.734793847 -s 1 -d -1 -p tcp -e 1040 -c 2 -a 0 -i 54 -k AGT 
- -t 0.734793847 -s 1 -d -1 -p tcp -e 1040 -c 2 -a 0 -i 54 -k AGT
h -t 0.734793847 -s 1 -d -1 -p tcp -e 1040 -c 2 -a 0 -i 54 -k AGT
+ -t 0.734793847 -s 1 -d 5 -p tcp -e 1040 -c 2 -a 0 -i 53 -k RTR 
- -t 0.734793847 -s 1 -d 5 -p tcp -e 1040 -c 2 -a 0 -i 53 -k RTR
h -t 0.734793847 -s 1 -d 5 -p tcp -e 1040 -c 2 -a 0 -i 53 -k RTR
+ -t 0.734793847 -s 1 -d 5 -p tcp -e 1040 -c 2 -a 0 -i 54 -k RTR 
- -t 0.734793847 -s 1 -d 5 -p tcp -e 1040 -c 2 -a 0 -i 54 -k RTR
h -t 0.734793847 -s 1 -d 5 -p tcp -e 1040 -c 2 -a 0 -i 54 -k RTR
r -t 0.736859639 -s 1 -d 1 -p ack -e 40 -c 2 -a 0 -i 48 -k AGT
+ -t 0.736859639 -s 1 -d -1 -p tcp -e 1040 -c 2 -a 0 -i 55 -k AGT 
- -t 0.736859639 -s 1 -d -1 -p tcp -e 1040 -c 2 -a 0 -i 55 -k AGT
h -t 0.736859639 -s 1 -d -1 -p tcp -e 1040 -c 2 -a 0 -i 55 -k AGT
+ -t 0.736859639 -s 1 -d -1 -p tcp -e 1040 -c 2 -a 0 -i 56 -k AGT 
- -t 0.736859639 -s 1 -d -1 -p tcp -e 1040 -c 2 -a 0 -i 56 -k AGT
h -t 0.736859639 -s 1 -d -1 -p tcp -e 1040 -c 2 -a 0 -i 56 -k AGT
+ -t 0.736859639 -s 1 -d 5 -p tcp -e 1040 -c 2 -a 0 -i 55 -k RTR 
- -t 0.736859639 -s 1 -d 5 -p tcp -e 1040 -c 2 -a 0 -i 55 -k RTR
h -t 0.736859639 -s 1 -d 5 -p tcp -e 1040 -c 2 -a 0 -i 55 -k RTR
+ -t 0.736859639 -s 1 -d 5 -p tcp -e 1040 -c 2 -a 0 -i 56 -k RTR 
- -t 0.736859639 -s 1 -d 5 -p tcp -e 1040 -c 2 -a 0 -i 56 -k RTR
h -t 0.736859639 -s 1 -d 5 -p tcp -e 1040 -c 2 -a 0 -i 56 -k RTR
r -t 0.738805432 -s 1 -d 1 -p ack -e 40 -c 2 -a 0 -i 51 -k AGT
+ -t 0.738805432 -s 1 -d -1 -p tcp -e 1040 -c 2 -a 0 -i 57 -k AGT 
- -t 0.738805432 -s 1 -d -1 -p tcp -e 1040 -c 2 -a 0 -i 57 -k AGT
h -t 0.738805432 -s 1 -d -1 -p tcp -e 1040 -c 2 -a 0 -i 57 -k AGT
+ -t 0.738805432 -s 1 -d -1 -p tcp -e 1040 -c 2 -a 0 -i 58 -k AGT 
- -t 0.738805432 -s 1 -d -1 -p tcp -e 1040 -c 2 -a 0 -i 58 -k AGT
h -t 0.738805432 -s 1 -d -1 -p tcp -e 1040 -c 2 -a 0 -i 58 -k AGT
+ -t 0.738805432 -s 1 -d 5 -p tcp -e 1040 -c 2 -a 0 -i 57 -k RTR 
- -t 0.738805432 -s 1 -d 5 -p tcp -e 1040 -c 2 -a 0 -i 57 -k RTR
h -t 0.738805432 -s 1 -d 5 -p tcp -e 1040 -c 2 -a 0 -i 57 -k RTR
+ -t 0.738805432 -s 1 -d 5 -p tcp -e 1040 -c 2 -a 0 -i 58 -k RTR 
- -t 0.738805432 -s 1 -d 5 -p tcp -e 1040 -c 2 -a 0 -i 58 -k RTR
h -t 0.738805432 -s 1 -d 5 -p tcp -e 1040 -c 2 -a 0 -i 58 -k RTR
r -t 0.748730776 -s 5 -d 5 -p tcp -e 1040 -c 2 -a 0 -i 32 -k AGT
+ -t 0.748730776 -s 5 -d -1 -p ack -e 40 -c 2 -a 0 -i 59 -k AGT 
- -t 0.748730776 -s 5 -d -1 -p ack -e 40 -c 2 -a 0 -i 59 -k AGT
h -t 0.748730776 -s 5 -d -1 -p ack -e 40 -c 2 -a 0 -i 59 -k AGT
+ -t 0.748730776 -s 5 -d 1 -p ack -e 40 -c 2 -a 0 -i 59 -k RTR 
- -t 0.748730776 -s 5 -d 1 -p ack -e 40 -c 2 -a 0 -i 59 -k RTR
h -t 0.748730776 -s 5 -d 1 -p ack -e 40 -c 2 -a 0 -i 59 -k RTR
r -t 0.758596568 -s 5 -d 5 -p tcp -e 1040 -c 2 -a 0 -i 33 -k AGT
+ -t 0.758596568 -s 5 -d -1 -p ack -e 40 -c 2 -a 0 -i 60 -k AGT 
- -t 0.758596568 -s 5 -d -1 -p ack -e 40 -c 2 -a 0 -i 60 -k AGT
h -t 0.758596568 -s 5 -d -1 -p ack -e 40 -c 2 -a 0 -i 60 -k AGT
+ -t 0.758596568 -s 5 -d 1 -p ack -e 40 -c 2 -a 0 -i 60 -k RTR 
- -t 0.758596568 -s 5 -d 1 -p ack -e 40 -c 2 -a 0 -i 60 -k RTR
h -t 0.758596568 -s 5 -d 1 -p ack -e 40 -c 2 -a 0 -i 60 -k RTR
r -t 0.760601913 -s 1 -d 1 -p ack -e 40 -c 2 -a 0 -i 52 -k AGT
+ -t 0.760601913 -s 1 -d -1 -p tcp -e 1040 -c 2 -a 0 -i 61 -k AGT 
- -t 0.760601913 -s 1 -d -1 -p tcp -e 1040 -c 2 -a 0 -i 61 -k AGT
h -t 0.760601913 -s 1 -d -1 -p tcp -e 1040 -c 2 -a 0 -i 61 -k AGT
+ -t 0.760601913 -s 1 -d 5 -p tcp -e 1040 -c 2 -a 0 -i 61 -k RTR 
- -t 0.760601913 -s 1 -d 5 -p tcp -e 1040 -c 2 -a 0 -i 61 -k RTR
h -t 0.760601913 -s 1 -d 5 -p tcp -e 1040 -c 2 -a 0 -i 61 -k RTR
r -t 0.762547705 -s 1 -d 1 -p ack -e 40 -c 2 -a 0 -i 59 -k AGT
+ -t 0.762547705 -s 1 -d -1 -p tcp -e 1040 -c 2 -a 0 -i 62 -k AGT 
- -t 0.762547705 -s 1 -d -1 -p tcp -e 1040 -c 2 -a 0 -i 62 -k AGT
h -t 0.762547705 -s 1 -d -1 -p tcp -e 1040 -c 2 -a 0 -i 62 -k AGT
+ -t 0.762547705 -s 1 -d 5 -p tcp -e 1040 -c 2 -a 0 -i 62 -k RTR 
- -t 0.762547705 -s 1 -d 5 -p tcp -e 1040 -c 2 -a 0 -i 62 -k RTR