s 0.500000000 _1_ AGT  --- 0 tcp 40 [0 0 0 0] [energy 187.355478 ei 0.000 es 0.000 et 0.000 er 0.000] ------- [1:0 5:0 32 0] [0 0] 0 0
r 0.500000000 _1_ RTR  --- 0 tcp 40 [0 0 0 0] [energy 187.355478 ei 0.000 es 0.000 et 0.000 er 0.000] ------- [1:0 5:0 32 0] [0 0] 0 0
s 0.500000000 _1_ RTR  --- 0 AODV 48 [0 0 0 0] [energy 187.355478 ei 0.000 es 0.000 et 0.000 er 0.000] ------- [1:255 -1:255 30 0] [0x2 1 1 [5 0] [1 4]] (REQUEST)
N -t 0.500115 -n 4 -e 436.648607
N -t 0.500115 -n 2 -e 416.984446
N -t 0.500115 -n 5 -e 489.071507
N -t 0.500116 -n 3 -e 86.944824
N -t 0.500116 -n 0 -e 999.999576
r 0.500988335 _4_ RTR  --- 0 AODV 48 [0 ffffffff 1 800] [energy 436.648607 ei 0.000 es 0.000 et 0.000 er 0.000] ------- [1:255 -1:255 30 0] [0x2 1 1 [5 0] [1 4]] (REQUEST)
r 0.500988401 _2_ RTR  --- 0 AODV 48 [0 ffffffff 1 800] [energy 416.984446 ei 0.000 es 0.000 et 0.000 er 0.000] ------- [1:255 -1:255 30 0] [0x2 1 1 [5 0] [1 4]] (REQUEST)
r 0.500988448 _5_ RTR  --- 0 AODV 48 [0 ffffffff 1 800] [energy 489.071507 ei 0.000 es 0.000 et 0.000 er 0.000] ------- [1:255 -1:255 30 0] [0x2 1 1 [5 0] [1 4]] (REQUEST)
s 0.500988448 _5_ RTR  --- 0 AODV 44 [0 0 0 0] [energy 489.071507 ei 0.000 es 0.000 et 0.000 er 0.000] ------- [5:255 1:255 30 1] [0x4 1 [5 4] 10.000000] (REPLY)
r 0.500988595 _3_ RTR  --- 0 AODV 48 [0 ffffffff 1 800] [energy 86.944824 ei 0.000 es 0.000 et 0.000 er 0.000] ------- [1:255 -1:255 30 0] [0x2 1 1 [5 0] [1 4]] (REQUEST)
r 0.500988601 _0_ RTR  --- 0 AODV 48 [0 ffffffff 1 800] [energy 999.999576 ei 0.000 es 0.000 et 0.000 er 0.000] ------- [1:255 -1:255 30 0] [0x2 1 1 [5 0] [1 4]] (REQUEST)
N -t 0.501244 -n 0 -e 999.999232
N -t 0.501244 -n 4 -e 436.648263
N -t 0.501244 -n 1 -e 187.354286
s 0.501869562 _4_ RTR  --- 0 AODV 48 [0 ffffffff 1 800] [energy 436.648263 ei 0.000 es 0.000 et 0.000 er 0.001] ------- [4:255 -1:255 29 0] [0x2 2 1 [5 0] [1 4]] (REQUEST)
N -t 0.502222 -n 2 -e 416.984022
N -t 0.502222 -n 1 -e 187.353862
N -t 0.502222 -n 5 -e 489.070395
N -t 0.502222 -n 0 -e 999.998808
N -t 0.502222 -n 3 -e 86.944400
r 0.503095168 _2_ RTR  --- 0 AODV 48 [0 ffffffff 4 800] [energy 416.984022 ei 0.000 es 0.000 et 0.000 er 0.001] ------- [4:255 -1:255 29 0] [0x2 2 1 [5 0] [1 4]] (REQUEST)
r 0.503095191 _1_ RTR  --- 0 AODV 48 [0 ffffffff 4 800] [energy 187.353862 ei 0.000 es 0.000 et 0.001 er 0.001] ------- [4:255 -1:255 29 0] [0x2 2 1 [5 0] [1 4]] (REQUEST)
r 0.503095262 _5_ RTR  --- 0 AODV 48 [0 ffffffff 4 800] [energy 489.070395 ei 0.000 es 0.000 et 0.001 er 0.001] ------- [4:255 -1:255 29 0] [0x2 2 1 [5 0] [1 4]] (REQUEST)
r 0.503095294 _0_ RTR  --- 0 AODV 48 [0 ffffffff 4 800] [energy 999.998808 ei 0.000 es 0.000 et 0.000 er 0.001] ------- [4:255 -1:255 29 0] [0x2 2 1 [5 0] [1 4]] (REQUEST)
r 0.503095465 _3_ RTR  --- 0 AODV 48 [0 ffffffff 4 800] [energy 86.944400 ei 0.000 es 0.000 et 0.000 er 0.001] ------- [4:255 -1:255 29 0] [0x2 2 1 [5 0] [1 4]] (REQUEST)
N -t 0.503221 -n 4 -e 436.647239
N -t 0.503221 -n 2 -e 416.983846
N -t 0.503221 -n 5 -e 489.070219
N -t 0.503221 -n 3 -e 86.944224
N -t 0.503221 -n 0 -e 999.998632
N -t 0.503583 -n 0 -e 999.998480
N -t 0.503583 -n 4 -e 436.647087
N -t 0.503583 -n 1 -e 187.353358
N -t 0.503897 -n 4 -e 436.646743
N -t 0.503897 -n 2 -e 416.983502
N -t 0.503898 -n 5 -e 489.069571
N -t 0.503898 -n 3 -e 86.943880
N -t 0.503898 -n 0 -e 999.998136
s 0.504118219 _0_ RTR  --- 0 AODV 48 [0 ffffffff 1 800] [energy 999.998136 ei 0.000 es 0.000 et 0.000 er 0.002] ------- [0:255 -1:255 29 0] [0x2 2 1 [5 0] [1 4]] (REQUEST)
N -t 0.504596 -n 0 -e 999.997984
N -t 0.504596 -n 4 -e 436.646591
N -t 0.504596 -n 1 -e 187.352518
N -t 0.504970 -n 0 -e 999.997808
N -t 0.504970 -n 4 -e 436.646415
N -t 0.504970 -n 1 -e 187.352342
N -t 0.505332 -n 4 -e 436.646263
N -t 0.505332 -n 2 -e 416.983350
N -t 0.505332 -n 5 -e 489.068763
N -t 0.505333 -n 3 -e 86.943728
N -t 0.505333 -n 0 -e 999.997656
s 0.505400135 _2_ RTR  --- 0 AODV 48 [0 ffffffff 1 800] [energy 416.983350 ei 0.000 es 0.000 et 0.000 er 0.002] ------- [2:255 -1:255 29 0] [0x2 2 1 [5 0] [1 4]] (REQUEST)
N -t 0.505647 -n 0 -e 999.997248
N -t 0.505647 -n 4 -e 436.645855
N -t 0.505647 -n 1 -e 187.351630
N -t 0.506473 -n 4 -e 436.645703
N -t 0.506473 -n 2 -e 416.983198
N -t 0.506473 -n 5 -e 489.067795
N -t 0.506473 -n 3 -e 86.943576
N -t 0.506473 -n 0 -e 999.997096
r 0.506487880 _1_ RTR  --- 0 AODV 44 [13a 1 5 800] [energy 187.351326 ei 0.000 es 0.000 et 0.002 er 0.002] ------- [5:255 1:255 30 1] [0x4 1 [5 4] 10.000000] (REPLY)
s 0.506487880 _1_ RTR  --- 0 tcp 40 [0 0 0 0] [energy 187.351326 ei 0.000 es 0.000 et 0.002 er 0.002] ------- [1:0 5:0 30 5] [0 0] 0 0
N -t 0.506847 -n 4 -e 436.645527
N -t 0.506847 -n 2 -e 416.983022
N -t 0.506847 -n 5 -e 489.067619
N -t 0.506847 -n 3 -e 86.943400
N -t 0.506847 -n 0 -e 999.996920
N -t 0.507210 -n 0 -e 999.996768
N -t 0.507210 -n 4 -e 436.645375
N -t 0.507210 -n 1 -e 187.350822
N -t 0.507524 -n 4 -e 436.644983
N -t 0.507524 -n 2 -e 416.982630
N -t 0.507524 -n 5 -e 489.066923
N -t 0.507524 -n 3 -e 86.943008
N -t 0.507524 -n 0 -e 999.996376
N -t 0.508318 -n 0 -e 999.996224
N -t 0.508319 -n 4 -e 436.644831
N -t 0.508319 -n 1 -e 187.349886
r 0.508333224 _5_ AGT  --- 0 tcp 40 [13a 5 1 800] [energy 489.066619 ei 0.000 es 0.000 et 0.003 er 0.002] ------- [1:0 5:0 30 5] [0 0] 1 0
s 0.508333224 _5_ AGT  --- 1 ack 40 [0 0 0 0] [energy 489.066619 ei 0.000 es 0.000 et 0.003 er 0.002] ------- [5:0 1:0 32 0] [0 0] 0 0
r 0.508333224 _5_ RTR  --- 1 ack 40 [0 0 0 0] [energy 489.066619 ei 0.000 es 0.000 et 0.003 er 0.002] ------- [5:0 1:0 32 0] [0 0] 0 0
s 0.508333224 _5_ RTR  --- 1 ack 40 [0 0 0 0] [energy 489.066619 ei 0.000 es 0.000 et 0.003 er 0.002] ------- [5:0 1:0 30 1] [0 0] 0 0
N -t 0.508812 -n 0 -e 999.996048
N -t 0.508813 -n 4 -e 436.644655
N -t 0.508813 -n 1 -e 187.349710
s 0.508980149 _3_ RTR  --- 0 AODV 48 [0 ffffffff 1 800] [energy 86.943008 ei 0.000 es 0.000 et 0.000 er 0.002] ------- [3:255 -1:255 29 0] [0x2 2 1 [5 0] [1 4]] (REQUEST)
N -t 0.509175 -n 4 -e 436.644503
N -t 0.509175 -n 2 -e 416.982478
N -t 0.509175 -n 5 -e 489.066115
N -t 0.509175 -n 3 -e 86.942856
N -t 0.509175 -n 0 -e 999.995896
N -t 0.509489 -n 0 -e 999.995504
N -t 0.509490 -n 4 -e 436.644111
N -t 0.509490 -n 1 -e 187.349014
N -t 0.510284 -n 4 -e 436.643959
N -t 0.510284 -n 2 -e 416.982326
N -t 0.510284 -n 5 -e 489.065179
N -t 0.510284 -n 3 -e 86.942704
N -t 0.510284 -n 0 -e 999.995352
r 0.510298568 _1_ AGT  --- 1 ack 40 [13a 1 5 800] [energy 187.348710 ei 0.000 es 0.000 et 0.004 er 0.003] ------- [5:0 1:0 30 1] [0 0] 1 0
s 0.510298568 _1_ AGT  --- 2 tcp 1040 [0 0 0 0] [energy 187.348710 ei 0.000 es 0.000 et 0.004 er 0.003] ------- [1:0 5:0 32 0] [1 0] 0 0
r 0.510298568 _1_ RTR  --- 2 tcp 1040 [0 0 0 0] [energy 187.348710 ei 0.000 es 0.000 et 0.004 er 0.003] ------- [1:0 5:0 32 0] [1 0] 0 0
s 0.510298568 _1_ AGT  --- 3 tcp 1040 [0 0 0 0] [energy 187.348710 ei 0.000 es 0.000 et 0.004 er 0.003] ------- [1:0 5:0 32 0] [2 0] 0 0
r 0.510298568 _1_ RTR  --- 3 tcp 1040 [0 0 0 0] [energy 187.348710 ei 0.000 es 0.000 et 0.004 er 0.003] ------- [1:0 5:0 32 0] [2 0] 0 0
s 0.510298568 _1_ RTR  --- 2 tcp 1040 [0 0 0 0] [energy 187.348710 ei 0.000 es 0.000 et 0.004 er 0.003] ------- [1:0 5:0 30 5] [1 0] 0 0
s 0.510298568 _1_ RTR  --- 3 tcp 1040 [0 0 0 0] [energy 187.348710 ei 0.000 es 0.000 et 0.004 er 0.003] ------- [1:0 5:0 30 5] [2 0] 0 0
N -t 0.510658 -n 3 -e 86.942280
N -t 0.510658 -n 4 -e 436.643535
N -t 0.510658 -n 1 -e 187.348286
N -t 0.510698 -n 5 -e 489.064755
N -t 0.510699 -n 4 -e 436.643515
N -t 0.510699 -n 1 -e 187.348266
r 0.511531269 _3_ RTR  --- 0 AODV 48 [0 ffffffff 2 800] [energy 86.942280 ei 0.000 es 0.000 et 0.000 er 0.003] ------- [2:255 -1:255 29 0] [0x2 2 1 [5 0] [1 4]] (REQUEST)
r 0.511571373 _5_ RTR  --- 0 AODV 48 [0 ffffffff 0 800] [energy 489.064755 ei 0.000 es 0.000 et 0.004 er 0.003] ------- [0:255 -1:255 29 0] [0x2 2 1 [5 0] [1 4]] (REQUEST)
N -t 0.511657 -n 2 -e 416.981054
N -t 0.511657 -n 1 -e 187.347842
N -t 0.511657 -n 4 -e 436.643091
r 0.512529568 _2_ RTR  --- 0 AODV 48 [0 ffffffff 3 800] [energy 416.981054 ei 0.000 es 0.000 et 0.001 er 0.003] ------- [3:255 -1:255 29 0] [0x2 2 1 [5 0] [1 4]] (REQUEST)
r 0.512529863 _1_ RTR  --- 0 AODV 48 [0 ffffffff 3 800] [energy 187.347842 ei 0.000 es 0.000 et 0.004 er 0.003] ------- [3:255 -1:255 29 0] [0x2 2 1 [5 0] [1 4]] (REQUEST)
r 0.512529879 _4_ RTR  --- 0 AODV 48 [0 ffffffff 3 800] [energy 436.643091 ei 0.000 es 0.000 et 0.001 er 0.005] ------- [3:255 -1:255 29 0] [0x2 2 1 [5 0] [1 4]] (REQUEST)
N -t 0.512755 -n 4 -e 436.642915
N -t 0.512755 -n 2 -e 416.980878
N -t 0.512755 -n 5 -e 489.064579
N -t 0.512755 -n 3 -e 86.941256
N -t 0.512755 -n 0 -e 999.994328
N -t 0.513118 -n 0 -e 999.994176
N -t 0.513118 -n 4 -e 436.642763
N -t 0.513118 -n 1 -e 187.347338
N -t 0.513432 -n 4 -e 436.638371
N -t 0.513432 -n 2 -e 416.976486
N -t 0.513432 -n 5 -e 489.059883
N -t 0.513432 -n 3 -e 86.936864
N -t 0.513432 -n 0 -e 999.989784
N -t 0.522226 -n 0 -e 999.989632
N -t 0.522227 -n 4 -e 436.638219
N -t 0.522227 -n 1 -e 187.338402
r 0.522241208 _5_ AGT  --- 2 tcp 1040 [13a 5 1 800] [energy 489.059579 ei 0.000 es 0.000 et 0.005 er 0.008] ------- [1:0 5:0 30 5] [1 0] 1 0
s 0.522241208 _5_ AGT  --- 4 ack 40 [0 0 0 0] [energy 489.059579 ei 0.000 es 0.000 et 0.005 er 0.008] ------- [5:0 1:0 32 0] [1 0] 0 0
r 0.522241208 _5_ RTR  --- 4 ack 40 [0 0 0 0] [energy 489.059579 ei 0.000 es 0.000 et 0.005 er 0.008] ------- [5:0 1:0 32 0] [1 0] 0 0
s 0.522241208 _5_ RTR  --- 4 ack 40 [0 0 0 0] [energy 489.059579 ei 0.000 es 0.000 et 0.005 er 0.008] ------- [5:0 1:0 30 1] [1 0] 0 0
N -t 0.522780 -n 0 -e 999.989456
N -t 0.522781 -n 4 -e 436.638043
N -t 0.522781 -n 1 -e 187.338226
N -t 0.523143 -n 4 -e 436.637891
N -t 0.523143 -n 2 -e 416.976334
N -t 0.523143 -n 5 -e 489.059075
N -t 0.523143 -n 3 -e 86.936712
N -t 0.523143 -n 0 -e 999.989304
N -t 0.523457 -n 0 -e 999.988912
N -t 0.523458 -n 4 -e 436.637499
N -t 0.523458 -n 1 -e 187.337530
N -t 0.524252 -n 4 -e 436.637347
N -t 0.524252 -n 2 -e 416.976182
N -t 0.524252 -n 5 -e 489.058139
N -t 0.524252 -n 3 -e 86.936560
N -t 0.524252 -n 0 -e 999.988760
r 0.524266552 _1_ AGT  --- 4 ack 40 [13a 1 5 800] [energy 187.337226 ei 0.000 es 0.000 et 0.014 er 0.004] ------- [5:0 1:0 30 1] [1 0] 1 0
s 0.524266552 _1_ AGT  --- 5 tcp 1040 [0 0 0 0] [energy 187.337226 ei 0.000 es 0.000 et 0.014 er 0.004] ------- [1:0 5:0 32 0] [3 0] 0 0
r 0.524266552 _1_ RTR  --- 5 tcp 1040 [0 0 0 0] [energy 187.337226 ei 0.000 es 0.000 et 0.014 er 0.004] ------- [1:0 5:0 32 0] [3 0] 0 0
s 0.524266552 _1_ AGT  --- 6 tcp 1040 [0 0 0 0] [energy 187.337226 ei 0.000 es 0.000 et 0.014 er 0.004] ------- [1:0 5:0 32 0] [4 0] 0 0
r 0.524266552 _1_ RTR  --- 6 tcp 1040 [0 0 0 0] [energy 187.337226 ei 0.000 es 0.000 et 0.014 er 0.004] ------- [1:0 5:0 32 0] [4 0] 0 0
s 0.524266552 _1_ RTR  --- 5 tcp 1040 [0 0 0 0] [energy 187.337226 ei 0.000 es 0.000 et 0.014 er 0.004] ------- [1:0 5:0 30 5] [3 0] 0 0
s 0.524266552 _1_ RTR  --- 6 tcp 1040 [0 0 0 0] [energy 187.337226 ei 0.000 es 0.000 et 0.014 er 0.004] ------- [1:0 5:0 30 5] [4 0] 0 0
N -t 0.524646 -n 4 -e 436.637171
N -t 0.524646 -n 2 -e 416.976006
N -t 0.524646 -n 5 -e 489.057963
N -t 0.524646 -n 3 -e 86.936384
N -t 0.524646 -n 0 -e 999.988584
N -t 0.525008 -n 0 -e 999.988432
N -t 0.525008 -n 4 -e 436.637019
N -t 0.525008 -n 1 -e 187.336722
N -t 0.525323 -n 4 -e 436.632627
N -t 0.525323 -n 2 -e 416.971614
N -t 0.525323 -n 5 -e 489.053267
N -t 0.525323 -n 3 -e 86.931992
N -t 0.525323 -n 0 -e 999.984040
N -t 0.534117 -n 0 -e 999.983888
N -t 0.534117 -n 4 -e 436.632475
N -t 0.534117 -n 1 -e 187.327786
r 0.534131897 _5_ AGT  --- 3 tcp 1040 [13a 5 1 800] [energy 489.052963 ei 0.000 es 0.000 et 0.007 er 0.012] ------- [1:0 5:0 30 5] [2 0] 1 0
s 0.534131897 _5_ AGT  --- 7 ack 40 [0 0 0 0] [energy 489.052963 ei 0.000 es 0.000 et 0.007 er 0.012] ------- [5:0 1:0 32 0] [2 0] 0 0
r 0.534131897 _5_ RTR  --- 7 ack 40 [0 0 0 0] [energy 489.052963 ei 0.000 es 0.000 et 0.007 er 0.012] ------- [5:0 1:0 32 0] [2 0] 0 0
s 0.534131897 _5_ RTR  --- 7 ack 40 [0 0 0 0] [energy 489.052963 ei 0.000 es 0.000 et 0.007 er 0.012] ------- [5:0 1:0 30 1] [2 0] 0 0
N -t 0.534711 -n 0 -e 999.983712
N -t 0.534711 -n 4 -e 436.632299
N -t 0.534711 -n 1 -e 187.327610
N -t 0.535074 -n 4 -e 436.632147
N -t 0.535074 -n 2 -e 416.971462
N -t 0.535074 -n 5 -e 489.052459
N -t 0.535074 -n 3 -e 86.931840
N -t 0.535074 -n 0 -e 999.983560
N -t 0.535388 -n 0 -e 999.983168
N -t 0.535388 -n 4 -e 436.631755
N -t 0.535388 -n 1 -e 187.326914
N -t 0.536183 -n 4 -e 436.631603
N -t 0.536183 -n 2 -e 416.971310
N -t 0.536183 -n 5 -e 489.051523
N -t 0.536183 -n 3 -e 86.931688
N -t 0.536183 -n 0 -e 999.983016
r 0.536197241 _1_ AGT  --- 7 ack 40 [13a 1 5 800] [energy 187.326610 ei 0.000 es 0.000 et 0.024 er 0.005] ------- [5:0 1:0 30 1] [2 0] 1 0
s 0.536197241 _1_ AGT  --- 8 tcp 1040 [0 0 0 0] [energy 187.326610 ei 0.000 es 0.000 et 0.024 er 0.005] ------- [1:0 5:0 32 0] [5 0] 0 0
r 0.536197241 _1_ RTR  --- 8 tcp 1040 [0 0 0 0] [energy 187.326610 ei 0.000 es 0.000 et 0.024 er 0.005] ------- [1:0 5:0 32 0] [5 0] 0 0
s 0.536197241 _1_ AGT  --- 9 tcp 1040 [0 0 0 0] [energy 187.326610 ei 0.000 es 0.000 et 0.024 er 0.005] ------- [1:0 5:0 32 0] [6 0] 0 0
r 0.536197241 _1_ RTR  --- 9 tcp 1040 [0 0 0 0] [energy 187.326610 ei 0.000 es 0.000 et 0.024 er 0.005] ------- [1:0 5:0 32 0] [6 0] 0 0
s 0.536197241 _1_ RTR  --- 8 tcp 1040 [0 0 0 0] [energy 187.326610 ei 0.000 es 0.000 et 0.024 er 0.005] ------- [1:0 5:0 30 5] [5 0] 0 0
s 0.536197241 _1_ RTR  --- 9 tcp 1040 [0 0 0 0] [energy 187.326610 ei 0.000 es 0.000 et 0.024 er 0.005] ------- [1:0 5:0 30 5] [6 0] 0 0
N -t 0.536737 -n 4 -e 436.631427
N -t 0.536737 -n 2 -e 416.971134
N -t 0.536737 -n 5 -e 489.051347
N -t 0.536737 -n 3 -e 86.931512
N -t 0.536737 -n 0 -e 999.982840
N -t 0.537099 -n 0 -e 999.982688
N -t 0.537099 -n 4 -e 436.631275
N -t 0.537099 -n 1 -e 187.326106
N -t 0.537413 -n 4 -e 436.626883
N -t 0.537414 -n 2 -e 416.966742
N -t 0.537414 -n 5 -e 489.046651
N -t 0.537414 -n 3 -e 86.927120
N -t 0.537414 -n 0 -e 999.978296
N -t 0.546208 -n 0 -e 999.978144
N -t 0.546208 -n 4 -e 436.626731
N -t 0.546208 -n 1 -e 187.317170
r 0.546222585 _5_ AGT  --- 5 tcp 1040 [13a 5 1 800] [energy 489.046347 ei 0.000 es 0.000 et 0.008 er 0.017] ------- [1:0 5:0 30 5] [3 0] 1 0
s 0.546222585 _5_ AGT  --- 10 ack 40 [0 0 0 0] [energy 489.046347 ei 0.000 es 0.000 et 0.008 er 0.017] ------- [5:0 1:0 32 0] [3 0] 0 0
r 0.546222585 _5_ RTR  --- 10 ack 40 [0 0 0 0] [energy 489.046347 ei 0.000 es 0.000 et 0.008 er 0.017] ------- [5:0 1:0 32 0] [3 0] 0 0
s 0.546222585 _5_ RTR  --- 10 ack 40 [0 0 0 0] [energy 489.046347 ei 0.000 es 0.000 et 0.008 er 0.017] ------- [5:0 1:0 30 1] [3 0] 0 0
N -t 0.546962 -n 4 -e 436.626555
N -t 0.546962 -n 2 -e 416.966566
N -t 0.546962 -n 5 -e 489.046171
N -t 0.546963 -n 3 -e 86.926944
N -t 0.546963 -n 0 -e 999.977968
N -t 0.547325 -n 0 -e 999.977816
N -t 0.547325 -n 4 -e 436.626403
N -t 0.547325 -n 1 -e 187.316666
N -t 0.547639 -n 4 -e 436.622011
N -t 0.547639 -n 2 -e 416.962174
N -t 0.547639 -n 5 -e 489.041475
N -t 0.547640 -n 3 -e 86.922552
N -t 0.547640 -n 0 -e 999.973424
N -t 0.556434 -n 0 -e 999.973272
N -t 0.556434 -n 4 -e 436.621859
N -t 0.556434 -n 1 -e 187.307730
r 0.556448378 _5_ AGT  --- 6 tcp 1040 [13a 5 1 800] [energy 489.041171 ei 0.000 es 0.000 et 0.009 er 0.022] ------- [1:0 5:0 30 5] [4 0] 1 0
s 0.556448378 _5_ AGT  --- 11 ack 40 [0 0 0 0] [energy 489.041171 ei 0.000 es 0.000 et 0.009 er 0.022] ------- [5:0 1:0 32 0] [4 0] 0 0
r 0.556448378 _5_ RTR  --- 11 ack 40 [0 0 0 0] [energy 489.041171 ei 0.000 es 0.000 et 0.009 er 0.022] ------- [5:0 1:0 32 0] [4 0] 0 0
s 0.556448378 _5_ RTR  --- 11 ack 40 [0 0 0 0] [energy 489.041171 ei 0.000 es 0.000 et 0.009 er 0.022] ------- [5:0 1:0 30 1] [4 0] 0 0
N -t 0.556968 -n 0 -e 999.973096
N -t 0.556968 -n 4 -e 436.621683
N -t 0.556968 -n 1 -e 187.307554
N -t 0.557330 -n 4 -e 436.621531
N -t 0.557330 -n 2 -e 416.962022
N -t 0.557330 -n 5 -e 489.040667
N -t 0.557330 -n 3 -e 86.922400
N -t 0.557330 -n 0 -e 999.972944
N -t 0.557644 -n 0 -e 999.972552
N -t 0.557645 -n 4 -e 436.621139
N -t 0.557645 -n 1 -e 187.306858
N -t 0.558439 -n 4 -e 436.620987
N -t 0.558439 -n 2 -e 416.961870
N -t 0.558439 -n 5 -e 489.039731
N -t 0.558439 -n 3 -e 86.922248
N -t 0.558439 -n 0 -e 999.972400
r 0.558453722 _1_ AGT  --- 10 ack 40 [13a 1 5 800] [energy 187.306554 ei 0.000 es 0.000 et 0.043 er 0.006] ------- [5:0 1:0 30 1] [3 0] 1 0
s 0.558453722 _1_ AGT  --- 12 tcp 1040 [0 0 0 0] [energy 187.306554 ei 0.000 es 0.000 et 0.043 er 0.006] ------- [1:0 5:0 32 0] [7 0] 0 0
r 0.558453722 _1_ RTR  --- 12 tcp 1040 [0 0 0 0] [energy 187.306554 ei 0.000 es 0.000 et 0.043 er 0.006] ------- [1:0 5:0 32 0] [7 0] 0 0
s 0.558453722 _1_ AGT  --- 13 tcp 1040 [0 0 0 0] [energy 187.306554 ei 0.000 es 0.000 et 0.043 er 0.006] ------- [1:0 5:0 32 0] [8 0] 0 0
r 0.558453722 _1_ RTR  --- 13 tcp 1040 [0 0 0 0] [energy 187.306554 ei 0.000 es 0.000 et 0.043 er 0.006] ------- [1:0 5:0 32 0] [8 0] 0 0
s 0.558453722 _1_ RTR  --- 12 tcp 1040 [0 0 0 0] [energy 187.306554 ei 0.000 es 0.000 et 0.043 er 0.006] ------- [1:0 5:0 30 5] [7 0] 0 0
s 0.558453722 _1_ RTR  --- 13 tcp 1040 [0 0 0 0] [energy 187.306554 ei 0.000 es 0.000 et 0.043 er 0.006] ------- [1:0 5:0 30 5] [8 0] 0 0
N -t 0.559153 -n 0 -e 999.972224
N -t 0.559154 -n 4 -e 436.620811
N -t 0.559154 -n 1 -e 187.306378
N -t 0.559516 -n 4 -e 436.620659
N -t 0.559516 -n 2 -e 416.961718
N -t 0.559516 -n 5 -e 489.039227
N -t 0.559516 -n 3 -e 86.922096
N -t 0.559516 -n 0 -e 999.972072
N -t 0.559830 -n 0 -e 999.971680
N -t 0.559830 -n 4 -e 436.620267
N -t 0.559831 -n 1 -e 187.305682
N -t 0.560625 -n 4 -e 436.620115
N -t 0.560625 -n 2 -e 416.961566
N -t 0.560625 -n 5 -e 489.038291
N -t 0.560625 -n 3 -e 86.921944
N -t 0.560625 -n 0 -e 999.971528
r 0.560639515 _1_ AGT  --- 11 ack 40 [13a 1 5 800] [energy 187.305378 ei 0.000 es 0.000 et 0.043 er 0.007] ------- [5:0 1:0 30 1] [4 0] 1 0
s 0.560639515 _1_ AGT  --- 14 tcp 1040 [0 0 0 0] [energy 187.305378 ei 0.000 es 0.000 et 0.043 er 0.007] ------- [1:0 5:0 32 0] [9 0] 0 0
r 0.560639515 _1_ RTR  --- 14 tcp 1040 [0 0 0 0] [energy 187.305378 ei 0.000 es 0.000 et 0.043 er 0.007] ------- [1:0 5:0 32 0] [9 0] 0 0
s 0.560639515 _1_ AGT  --- 15 tcp 1040 [0 0 0 0] [energy 187.305378 ei 0.000 es 0.000 et 0.043 er 0.007] ------- [1:0 5:0 32 0] [10 0] 0 0
r 0.560639515 _1_ RTR  --- 15 tcp 1040 [0 0 0 0] [energy 187.305378 ei 0.000 es 0.000 et 0.043 er 0.007] ------- [1:0 5:0 32 0] [10 0] 0 0
s 0.560639515 _1_ RTR  --- 14 tcp 1040 [0 0 0 0] [energy 187.305378 ei 0.000 es 0.000 et 0.043 er 0.007] ------- [1:0 5:0 30 5] [9 0] 0 0
s 0.560639515 _1_ RTR  --- 15 tcp 1040 [0 0 0 0] [energy 187.305378 ei 0.000 es 0.000 et 0.043 er 0.007] ------- [1:0 5:0 30 5] [10 0] 0 0
N -t 0.560999 -n 4 -e 436.619939
N -t 0.560999 -n 2 -e 416.961390
N -t 0.560999 -n 5 -e 489.038115
N -t 0.560999 -n 3 -e 86.921768
N -t 0.560999 -n 0 -e 999.971352
N -t 0.561361 -n 0 -e 999.971200
N -t 0.561361 -n 4 -e 436.619787
N -t 0.561361 -n 1 -e 187.304874
N -t 0.561676 -n 4 -e 436.615395
N -t 0.561676 -n 2 -e 416.956998
N -t 0.561676 -n 5 -e 489.033419
N -t 0.561676 -n 3 -e 86.917376
N -t 0.561676 -n 0 -e 999.966808
N -t 0.570470 -n 0 -e 999.966656
N -t 0.570470 -n 4 -e 436.615243
N -t 0.570470 -n 1 -e 187.295938
r 0.570484859 _5_ AGT  --- 8 tcp 1040 [13a 5 1 800] [energy 489.033115 ei 0.000 es 0.000 et 0.012 er 0.027] ------- [1:0 5:0 30 5] [5 0] 1 0
s 0.570484859 _5_ AGT  --- 16 ack 40 [0 0 0 0] [energy 489.033115 ei 0.000 es 0.000 et 0.012 er 0.027] ------- [5:0 1:0 32 0] [5 0] 0 0
r 0.570484859 _5_ RTR  --- 16 ack 40 [0 0 0 0] [energy 489.033115 ei 0.000 es 0.000 et 0.012 er 0.027] ------- [5:0 1:0 32 0] [5 0] 0 0
s 0.570484859 _5_ RTR  --- 16 ack 40 [0 0 0 0] [energy 489.033115 ei 0.000 es 0.000 et 0.012 er 0.027] ------- [5:0 1:0 30 1] [5 0] 0 0
N -t 0.570844 -n 0 -e 999.966480
N -t 0.570844 -n 4 -e 436.615067
N -t 0.570844 -n 1 -e 187.295762
N -t 0.571207 -n 4 -e 436.614915
N -t 0.571207 -n 2 -e 416.956846
N -t 0.571207 -n 5 -e 489.032611
N -t 0.571207 -n 3 -e 86.917224
N -t 0.571207 -n 0 -e 999.966328
N -t 0.571521 -n 0 -e 999.965936
N -t 0.571521 -n 4 -e 436.614523
N -t 0.571521 -n 1 -e 187.295066
N -t 0.572316 -n 4 -e 436.614371
N -t 0.572316 -n 2 -e 416.956694
N -t 0.572316 -n 5 -e 489.031675
N -t 0.572316 -n 3 -e 86.917072
N -t 0.572316 -n 0 -e 999.965784
r 0.572330204 _1_ AGT  --- 16 ack 40 [13a 1 5 800] [energy 187.294762 ei 0.000 es 0.000 et 0.053 er 0.008] ------- [5:0 1:0 30 1] [5 0] 1 0
s 0.572330204 _1_ AGT  --- 17 tcp 1040 [0 0 0 0] [energy 187.294762 ei 0.000 es 0.000 et 0.053 er 0.008] ------- [1:0 5:0 32 0] [11 0] 0 0
r 0.572330204 _1_ RTR  --- 17 tcp 1040 [0 0 0 0] [energy 187.294762 ei 0.000 es 0.000 et 0.053 er 0.008] ------- [1:0 5:0 32 0] [11 0] 0 0
s 0.572330204 _1_ AGT  --- 18 tcp 1040 [0 0 0 0] [energy 187.294762 ei 0.000 es 0.000 et 0.053 er 0.008] ------- [1:0 5:0 32 0] [12 0] 0 0
r 0.572330204 _1_ RTR  --- 18 tcp 1040 [0 0 0 0] [energy 187.294762 ei 0.000 es 0.000 et 0.053 er 0.008] ------- [1:0 5:0 32 0] [12 0] 0 0
s 0.572330204 _1_ RTR  --- 17 tcp 1040 [0 0 0 0] [energy 187.294762 ei 0.000 es 0.000 et 0.053 er 0.008] ------- [1:0 5:0 30 5] [11 0] 0 0
s 0.572330204 _1_ RTR  --- 18 tcp 1040 [0 0 0 0] [energy 187.294762 ei 0.000 es 0.000 et 0.053 er 0.008] ------- [1:0 5:0 30 5] [12 0] 0 0
N -t 0.572950 -n 4 -e 436.614195
N -t 0.572950 -n 2 -e 416.956518
N -t 0.572950 -n 5 -e 489.031499
N -t 0.572950 -n 3 -e 86.916896
N -t 0.572950 -n 0 -e 999.965608
N -t 0.573312 -n 0 -e 999.965456
N -t 0.573312 -n 4 -e 436.614043
N -t 0.573312 -n 1 -e 187.294258
N -t 0.573626 -n 4 -e 436.609651
N -t 0.573627 -n 2 -e 416.952126
N -t 0.573627 -n 5 -e 489.026803
N -t 0.573627 -n 3 -e 86.912504
N -t 0.573627 -n 0 -e 999.961064
N -t 0.582421 -n 0 -e 999.960912
N -t 0.582421 -n 4 -e 436.609499
N -t 0.582421 -n 1 -e 187.285322
r 0.582435548 _5_ AGT  --- 9 tcp 1040 [13a 5 1 800] [energy 489.026499 ei 0.000 es 0.000 et 0.014 er 0.032] ------- [1:0 5:0 30 5] [6 0] 1 0
s 0.582435548 _5_ AGT  --- 19 ack 40 [0 0 0 0] [energy 489.026499 ei 0.000 es 0.000 et 0.014 er 0.032] ------- [5:0 1:0 32 0] [6 0] 0 0
r 0.582435548 _5_ RTR  --- 19 ack 40 [0 0 0 0] [energy 489.026499 ei 0.000 es 0.000 et 0.014 er 0.032] ------- [5:0 1:0 32 0] [6 0] 0 0
s 0.582435548 _5_ RTR  --- 19 ack 40 [0 0 0 0] [energy 489.026499 ei 0.000 es 0.000 et 0.014 er 0.032] ------- [5:0 1:0 30 1] [6 0] 0 0
N -t 0.582855 -n 0 -e 999.960736
N -t 0.582855 -n 4 -e 436.609323
N -t 0.582855 -n 1 -e 187.285146
N -t 0.583217 -n 4 -e 436.609171
N -t 0.583217 -n 2 -e 416.951974
N -t 0.583217 -n 5 -e 489.025995
N -t 0.583218 -n 3 -e 86.912352
N -t 0.583218 -n 0 -e 999.960584
N -t 0.583532 -n 0 -e 999.960192
N -t 0.583532 -n 4 -e 436.608779
N -t 0.583532 -n 1 -e 187.284450
N -t 0.584326 -n 4 -e 436.608627
N -t 0.584326 -n 2 -e 416.951822
N -t 0.584326 -n 5 -e 489.025059
N -t 0.584326 -n 3 -e 86.912200
N -t 0.584326 -n 0 -e 999.960040
r 0.584340892 _1_ AGT  --- 19 ack 40 [13a 1 5 800] [energy 187.284146 ei 0.000 es 0.000 et 0.063 er 0.009] ------- [5:0 1:0 30 1] [6 0] 1 0
s 0.584340892 _1_ AGT  --- 20 tcp 1040 [0 0 0 0] [energy 187.284146 ei 0.000 es 0.000 et 0.063 er 0.009] ------- [1:0 5:0 32 0] [13 0] 0 0
r 0.584340892 _1_ RTR  --- 20 tcp 1040 [0 0 0 0] [energy 187.284146 ei 0.000 es 0.000 et 0.063 er 0.009] ------- [1:0 5:0 32 0] [13 0] 0 0
s 0.584340892 _1_ AGT  --- 21 tcp 1040 [0 0 0 0] [energy 187.284146 ei 0.000 es 0.000 et 0.063 er 0.009] ------- [1:0 5:0 32 0] [14 0] 0 0
r 0.584340892 _1_ RTR  --- 21 tcp 1040 [0 0 0 0] [energy 187.284146 ei 0.000 es 0.000 et 0.063 er 0.009] ------- [1:0 5:0 32 0] [14 0] 0 0
s 0.584340892 _1_ RTR  --- 20 tcp 1040 [0 0 0 0] [energy 187.284146 ei 0.000 es 0.000 et 0.063 er 0.009] ------- [1:0 5:0 30 5] [13 0] 0 0
s 0.584340892 _1_ RTR  --- 21 tcp 1040 [0 0 0 0] [energy 187.284146 ei 0.000 es 0.000 et 0.063 er 0.009] ------- [1:0 5:0 30 5] [14 0] 0 0
N -t 0.584760 -n 4 -e 436.608451
N -t 0.584760 -n 2 -e 416.951646
N -t 0.584760 -n 5 -e 489.024883
N -t 0.584760 -n 3 -e 86.912024
N -t 0.584760 -n 0 -e 999.959864
N -t 0.585123 -n 0 -e 999.959712
N -t 0.585123 -n 4 -e 436.608299
N -t 0.585123 -n 1 -e 187.283642
N -t 0.585437 -n 4 -e 436.603907
N -t 0.585437 -n 2 -e 416.947254
N -t 0.585437 -n 5 -e 489.020187
N -t 0.585437 -n 3 -e 86.907632
N -t 0.585437 -n 0 -e 999.955320
N -t 0.594231 -n 0 -e 999.955168
N -t 0.594232 -n 4 -e 436.603755
N -t 0.594232 -n 1 -e 187.274706
r 0.594246237 _5_ AGT  --- 12 tcp 1040 [13a 5 1 800] [energy 489.019883 ei 0.000 es 0.000 et 0.015 er 0.037] ------- [1:0 5:0 30 5] [7 0] 1 0
s 0.594246237 _5_ AGT  --- 22 ack 40 [0 0 0 0] [energy 489.019883 ei 0.000 es 0.000 et 0.015 er 0.037] ------- [5:0 1:0 32 0] [7 0] 0 0
r 0.594246237 _5_ RTR  --- 22 ack 40 [0 0 0 0] [energy 489.019883 ei 0.000 es 0.000 et 0.015 er 0.037] ------- [5:0 1:0 32 0] [7 0] 0 0
s 0.594246237 _5_ RTR  --- 22 ack 40 [0 0 0 0] [energy 489.019883 ei 0.000 es 0.000 et 0.015 er 0.037] ------- [5:0 1:0 30 1] [7 0] 0 0
N -t 0.594786 -n 4 -e 436.603579
N -t 0.594786 -n 2 -e 416.947078
N -t 0.594786 -n 5 -e 489.019707
N -t 0.594786 -n 3 -e 86.907456
N -t 0.594786 -n 0 -e 999.954992
N -t 0.595148 -n 0 -e 999.954840
N -t 0.595149 -n 4 -e 436.603427
N -t 0.595149 -n 1 -e 187.274202
N -t 0.595463 -n 4 -e 436.599035
N -t 0.595463 -n 2 -e 416.942686
N -t 0.595463 -n 5 -e 489.015011
N -t 0.595463 -n 3 -e 86.903064
N -t 0.595463 -n 0 -e 999.950448
N -t 0.604257 -n 0 -e 999.950296
N -t 0.604257 -n 4 -e 436.598883
N -t 0.604257 -n 1 -e 187.265266
r 0.604272029 _5_ AGT  --- 13 tcp 1040 [13a 5 1 800] [energy 489.014707 ei 0.000 es 0.000 et 0.016 er 0.041] ------- [1:0 5:0 30 5] [8 0] 1 0
s 0.604272029 _5_ AGT  --- 23 ack 40 [0 0 0 0] [energy 489.014707 ei 0.000 es 0.000 et 0.016 er 0.041] ------- [5:0 1:0 32 0] [8 0] 0 0
r 0.604272029 _5_ RTR  --- 23 ack 40 [0 0 0 0] [energy 489.014707 ei 0.000 es 0.000 et 0.016 er 0.041] ------- [5:0 1:0 32 0] [8 0] 0 0
s 0.604272029 _5_ RTR  --- 23 ack 40 [0 0 0 0] [energy 489.014707 ei 0.000 es 0.000 et 0.016 er 0.041] ------- [5:0 1:0 30 1] [8 0] 0 0
N -t 0.604691 -n 0 -e 999.950120
N -t 0.604691 -n 4 -e 436.598707
N -t 0.604691 -n 1 -e 187.265090
N -t 0.605054 -n 4 -e 436.598555
N -t 0.605054 -n 2 -e 416.942534
N -t 0.605054 -n 5 -e 489.014203
N -t 0.605054 -n 3 -e 86.902912
N -t 0.605054 -n 0 -e 999.949968
N -t 0.605368 -n 0 -e 999.949576
N -t 0.605368 -n 4 -e 436.598163
N -t 0.605368 -n 1 -e 187.264394
N -t 0.606163 -n 4 -e 436.598011
N -t 0.606163 -n 2 -e 416.942382
N -t 0.606163 -n 5 -e 489.013267
N -t 0.606163 -n 3 -e 86.902760
N -t 0.606163 -n 0 -e 999.949424
r 0.606177374 _1_ AGT  --- 22 ack 40 [13a 1 5 800] [energy 187.264090 ei 0.000 es 0.000 et 0.082 er 0.010] ------- [5:0 1:0 30 1] [7 0] 1 0
s 0.606177374 _1_ AGT  --- 24 tcp 1040 [0 0 0 0] [energy 187.264090 ei 0.000 es 0.000 et 0.082 er 0.010] ------- [1:0 5:0 32 0] [15 0] 0 0
r 0.606177374 _1_ RTR  --- 24 tcp 1040 [0 0 0 0] [energy 187.264090 ei 0.000 es 0.000 et 0.082 er 0.010] ------- [1:0 5:0 32 0] [15 0] 0 0
s 0.606177374 _1_ AGT  --- 25 tcp 1040 [0 0 0 0] [energy 187.264090 ei 0.000 es 0.000 et 0.082 er 0.010] ------- [1:0 5:0 32 0] [16 0] 0 0
r 0.606177374 _1_ RTR  --- 25 tcp 1040 [0 0 0 0] [energy 187.264090 ei 0.000 es 0.000 et 0.082 er 0.010] ------- [1:0 5:0 32 0] [16 0] 0 0
s 0.606177374 _1_ RTR  --- 24 tcp 1040 [0 0 0 0] [energy 187.264090 ei 0.000 es 0.000 et 0.082 er 0.010] ------- [1:0 5:0 30 5] [15 0] 0 0
s 0.606177374 _1_ RTR  --- 25 tcp 1040 [0 0 0 0] [energy 187.264090 ei 0.000 es 0.000 et 0.082 er 0.010] ------- [1:0 5:0 30 5] [16 0] 0 0
N -t 0.606557 -n 4 -e 436.597835
N -t 0.606557 -n 2 -e 416.942206
N -t 0.606557 -n 5 -e 489.013091
N -t 0.606557 -n 3 -e 86.902584
N -t 0.606557 -n 0 -e 999.949248
N -t 0.606919 -n 0 -e 999.949096
N -t 0.606919 -n 4 -e 436.597683
N -t 0.606919 -n 1 -e 187.263586
N -t 0.607234 -n 4 -e 436.593291
N -t 0.607234 -n 2 -e 416.937814
N -t 0.607234 -n 5 -e 489.008395
N -t 0.607234 -n 3 -e 86.898192
N -t 0.607234 -n 0 -e 999.944704
N -t 0.616028 -n 0 -e 999.944552
N -t 0.616028 -n 4 -e 436.593139
N -t 0.616028 -n 1 -e 187.254650
r 0.616042718 _5_ AGT  --- 14 tcp 1040 [13a 5 1 800] [energy 489.008091 ei 0.000 es 0.000 et 0.018 er 0.046] ------- [1:0 5:0 30 5] [9 0] 1 0
s 0.616042718 _5_ AGT  --- 26 ack 40 [0 0 0 0] [energy 489.008091 ei 0.000 es 0.000 et 0.018 er 0.046] ------- [5:0 1:0 32 0] [9 0] 0 0
r 0.616042718 _5_ RTR  --- 26 ack 40 [0 0 0 0] [energy 489.008091 ei 0.000 es 0.000 et 0.018 er 0.046] ------- [5:0 1:0 32 0] [9 0] 0 0
s 0.616042718 _5_ RTR  --- 26 ack 40 [0 0 0 0] [energy 489.008091 ei 0.000 es 0.000 et 0.018 er 0.046] ------- [5:0 1:0 30 1] [9 0] 0 0
N -t 0.616603 -n 4 -e 436.592963
N -t 0.616603 -n 2 -e 416.937638
N -t 0.616603 -n 5 -e 489.007915
N -t 0.616603 -n 3 -e 86.898016
N -t 0.616603 -n 0 -e 999.944376
N -t 0.616965 -n 0 -e 999.944224
N -t 0.616965 -n 4 -e 436.592811
N -t 0.616965 -n 1 -e 187.254146
N -t 0.617279 -n 4 -e 436.588419
N -t 0.617279 -n 2 -e 416.933246
N -t 0.617280 -n 5 -e 489.003219
N -t 0.617280 -n 3 -e 86.893624
N -t 0.617280 -n 0 -e 999.939832
N -t 0.626074 -n 0 -e 999.939680
N -t 0.626074 -n 4 -e 436.588267
N -t 0.626074 -n 1 -e 187.245210
r 0.626088511 _5_ AGT  --- 15 tcp 1040 [13a 5 1 800] [energy 489.002915 ei 0.000 es 0.000 et 0.018 er 0.051] ------- [1:0 5:0 30 5] [10 0] 1 0
s 0.626088511 _5_ AGT  --- 27 ack 40 [0 0 0 0] [energy 489.002915 ei 0.000 es 0.000 et 0.018 er 0.051] ------- [5:0 1:0 32 0] [10 0] 0 0
r 0.626088511 _5_ RTR  --- 27 ack 40 [0 0 0 0] [energy 489.002915 ei 0.000 es 0.000 et 0.018 er 0.051] ------- [5:0 1:0 32 0] [10 0] 0 0
s 0.626088511 _5_ RTR  --- 27 ack 40 [0 0 0 0] [energy 489.002915 ei 0.000 es 0.000 et 0.018 er 0.051] ------- [5:0 1:0 30 1] [10 0] 0 0
N -t 0.626628 -n 4 -e 436.588091
N -t 0.626628 -n 2 -e 416.933070
N -t 0.626628 -n 5 -e 489.002739
N -t 0.626629 -n 3 -e 86.893448
N -t 0.626629 -n 0 -e 999.939504
N -t 0.626991 -n 0 -e 999.939352
N -t 0.626991 -n 4 -e 436.587939
N -t 0.626991 -n 1 -e 187.244706