n -t * -s 0  -x 224.31652514464992 -y 87.838106131105732 -Z 0 -z 30  -v circle -c black
n -t * -s 1  -x 295.04974549405733 -y 401.07251862113947 -Z 0 -z 30  -v circle -c black
n -t * -s 2  -x 325.82046549106968 -y 64.56350840840652 -Z 0 -z 30  -v circle -c black
n -t * -s 3  -x 118.88582008838924 -y 113.97822555805475 -Z 0 -z 30  -v circle -c black
V -t * -v 1.0a5 -a 0
W -t * -x 500 -y 500
A -t * -n 1 -p 0 -o 0x7fffffff -c 30 -a 1
A -t * -h 1 -m 1073741823 -s 0
n -t 0.500000 -s 0 -x 224.316525 -y 87.838106 -U 7.821591 -V 49.384438 -T 3.283664
n -t 0.500000 -s 2 -x 325.820465 -y 64.563508 -U 6.464900 -V 49.580289 -T 3.740125
+ -t 0.500000000 -s 1 -d -1 -p tcp -e 40 -c 2 -a 0 -i 0 -k AGT 
- -t 0.500000000 -s 1 -d -1 -p tcp -e 40 -c 2 -a 0 -i 0 -k AGT
h -t 0.500000000 -s 1 -d -1 -p tcp -e 40 -c 2 -a 0 -i 0 -k AGT
+ -t 0.500000000 -s 1 -d -1 -p AODV -e 48 -c 2 -a 0 -i 0 -k RTR 
- -t 0.500000000 -s 1 -d -1 -p AODV -e 48 -c 2 -a 0 -i 0 -k RTR
h -t 0.500000000 -s 1 -d -1 -p AODV -e 48 -c 2 -a 0 -i 0 -k RTR
r -t 0.500989070 -s 0 -d -1 -p AODV -e 48 -c 2 -a 0 -i 0 -k RTR
r -t 0.500989123 -s 3 -d -1 -p AODV -e 48 -c 2 -a 0 -i 0 -k RTR
r -t 0.500989126 -s 2 -d -1 -p AODV -e 48 -c 2 -a 0 -i 0 -k RTR
+ -t 0.500989126 -s 2 -d 1 -p AODV -e 44 -c 2 -a 0 -i 0 -k RTR 
- -t 0.500989126 -s 2 -d 1 -p AODV -e 44 -c 2 -a 0 -i 0 -k RTR
h -t 0.500989126 -s 2 -d 1 -p AODV -e 44 -c 2 -a 0 -i 0 -k RTR
+ -t 0.501870297 -s 0 -d -1 -p AODV -e 48 -c 2 -a 0 -i 0 -k RTR 
- -t 0.501870297 -s 0 -d -1 -p AODV -e 48 -c 2 -a 0 -i 0 -k RTR
h -t 0.501870297 -s 0 -d -1 -p AODV -e 48 -c 2 -a 0 -i 0 -k RTR
r -t 0.503018644 -s 2 -d -1 -p AODV -e 48 -c 2 -a 0 -i 0 -k RTR
r -t 0.503018659 -s 3 -d -1 -p AODV -e 48 -c 2 -a 0 -i 0 -k RTR
r -t 0.503019367 -s 1 -d -1 -p AODV -e 48 -c 2 -a 0 -i 0 -k RTR
+ -t 0.505400857 -s 3 -d -1 -p AODV -e 48 -c 2 -a 0 -i 0 -k RTR 
- -t 0.505400857 -s 3 -d -1 -p AODV -e 48 -c 2 -a 0 -i 0 -k RTR
h -t 0.505400857 -s 3 -d -1 -p AODV -e 48 -c 2 -a 0 -i 0 -k RTR
+ -t 0.506836121 -s 1 -d 2 -p tcp -e 40 -c 2 -a 0 -i 0 -k RTR 
- -t 0.506836121 -s 1 -d 2 -p tcp -e 40 -c 2 -a 0 -i 0 -k RTR
h -t 0.506836121 -s 1 -d 2 -p tcp -e 40 -c 2 -a 0 -i 0 -k RTR
r -t 0.508703496 -s 2 -d 2 -p tcp -e 40 -c 2 -a 0 -i 0 -k AGT
+ -t 0.508703496 -s 2 -d -1 -p ack -e 40 -c 2 -a 0 -i 1 -k AGT 
- -t 0.508703496 -s 2 -d -1 -p ack -e 40 -c 2 -a 0 -i 1 -k AGT
h -t 0.508703496 -s 2 -d -1 -p ack -e 40 -c 2 -a 0 -i 1 -k AGT
+ -t 0.508703496 -s 2 -d 1 -p ack -e 40 -c 2 -a 0 -i 1 -k RTR 
- -t 0.508703496 -s 2 -d 1 -p ack -e 40 -c 2 -a 0 -i 1 -k RTR
h -t 0.508703496 -s 2 -d 1 -p ack -e 40 -c 2 -a 0 -i 1 -k RTR
r -t 0.510116567 -s 0 -d -1 -p AODV -e 48 -c 2 -a 0 -i 0 -k RTR
r -t 0.510116914 -s 2 -d -1 -p AODV -e 48 -c 2 -a 0 -i 0 -k RTR
r -t 0.510117328 -s 1 -d -1 -p AODV -e 48 -c 2 -a 0 -i 0 -k RTR
r -t 0.511950288 -s 1 -d 1 -p ack -e 40 -c 2 -a 0 -i 1 -k AGT
+ -t 0.511950288 -s 1 -d -1 -p tcp -e 1040 -c 2 -a 0 -i 2 -k AGT 
- -t 0.511950288 -s 1 -d -1 -p tcp -e 1040 -c 2 -a 0 -i 2 -k AGT
h -t 0.511950288 -s 1 -d -1 -p tcp -e 1040 -c 2 -a 0 -i 2 -k AGT
+ -t 0.511950288 -s 1 -d -1 -p tcp -e 1040 -c 2 -a 0 -i 3 -k AGT 
- -t 0.511950288 -s 1 -d -1 -p tcp -e 1040 -c 2 -a 0 -i 3 -k AGT
h -t 0.511950288 -s 1 -d -1 -p tcp -e 1040 -c 2 -a 0 -i 3 -k AGT
+ -t 0.511950288 -s 1 -d 2 -p tcp -e 1040 -c 2 -a 0 -i 2 -k RTR 
- -t 0.511950288 -s 1 -d 2 -p tcp -e 1040 -c 2 -a 0 -i 2 -k RTR
h -t 0.511950288 -s 1 -d 2 -p tcp -e 1040 -c 2 -a 0 -i 2 -k RTR
+ -t 0.511950288 -s 1 -d 2 -p tcp -e 1040 -c 2 -a 0 -i 3 -k RTR 
- -t 0.511950288 -s 1 -d 2 -p tcp -e 1040 -c 2 -a 0 -i 3 -k RTR
h -t 0.511950288 -s 1 -d 2 -p tcp -e 1040 -c 2 -a 0 -i 3 -k RTR
r -t 0.522017661 -s 2 -d 2 -p tcp -e 1040 -c 2 -a 0 -i 2 -k AGT
+ -t 0.522017661 -s 2 -d -1 -p ack -e 40 -c 2 -a 0 -i 4 -k AGT 
- -t 0.522017661 -s 2 -d -1 -p ack -e 40 -c 2 -a 0 -i 4 -k AGT
h -t 0.522017661 -s 2 -d -1 -p ack -e 40 -c 2 -a 0 -i 4 -k AGT
+ -t 0.522017661 -s 2 -d 1 -p ack -e 40 -c 2 -a 0 -i 4 -k RTR 
- -t 0.522017661 -s 2 -d 1 -p ack -e 40 -c 2 -a 0 -i 4 -k RTR
h -t 0.522017661 -s 2 -d 1 -p ack -e 40 -c 2 -a 0 -i 4 -k RTR
r -t 0.532186152 -s 2 -d 2 -p tcp -e 1040 -c 2 -a 0 -i 3 -k AGT
+ -t 0.532186152 -s 2 -d -1 -p ack -e 40 -c 2 -a 0 -i 5 -k AGT 
- -t 0.532186152 -s 2 -d -1 -p ack -e 40 -c 2 -a 0 -i 5 -k AGT
h -t 0.532186152 -s 2 -d -1 -p ack -e 40 -c 2 -a 0 -i 5 -k AGT
+ -t 0.532186152 -s 2 -d 1 -p ack -e 40 -c 2 -a 0 -i 5 -k RTR 
- -t 0.532186152 -s 2 -d 1 -p ack -e 40 -c 2 -a 0 -i 5 -k RTR
h -t 0.532186152 -s 2 -d 1 -p ack -e 40 -c 2 -a 0 -i 5 -k RTR
r -t 0.534153515 -s 1 -d 1 -p ack -e 40 -c 2 -a 0 -i 4 -k AGT
+ -t 0.534153515 -s 1 -d -1 -p tcp -e 1040 -c 2 -a 0 -i 6 -k AGT 
- -t 0.534153515 -s 1 -d -1 -p tcp -e 1040 -c 2 -a 0 -i 6 -k AGT
h -t 0.534153515 -s 1 -d -1 -p tcp -e 1040 -c 2 -a 0 -i 6 -k AGT
+ -t 0.534153515 -s 1 -d -1 -p tcp -e 1040 -c 2 -a 0 -i 7 -k AGT 
- -t 0.534153515 -s 1 -d -1 -p tcp -e 1040 -c 2 -a 0 -i 7 -k AGT
h -t 0.534153515 -s 1 -d -1 -p tcp -e 1040 -c 2 -a 0 -i 7 -k AGT
+ -t 0.534153515 -s 1 -d 2 -p tcp -e 1040 -c 2 -a 0 -i 6 -k RTR 
- -t 0.534153515 -s 1 -d 2 -p tcp -e 1040 -c 2 -a 0 -i 6 -k RTR
h -t 0.534153515 -s 1 -d 2 -p tcp -e 1040 -c 2 -a 0 -i 6 -k RTR
+ -t 0.534153515 -s 1 -d 2 -p tcp -e 1040 -c 2 -a 0 -i 7 -k RTR 
- -t 0.534153515 -s 1 -d 2 -p tcp -e 1040 -c 2 -a 0 -i 7 -k RTR
h -t 0.534153515 -s 1 -d 2 -p tcp -e 1040 -c 2 -a 0 -i 7 -k RTR
r -t 0.544180877 -s 2 -d 2 -p tcp -e 1040 -c 2 -a 0 -i 6 -k AGT
+ -t 0.544180877 -s 2 -d -1 -p ack -e 40 -c 2 -a 0 -i 8 -k AGT 
- -t 0.544180877 -s 2 -d -1 -p ack -e 40 -c 2 -a 0 -i 8 -k AGT
h -t 0.544180877 -s 2 -d -1 -p ack -e 40 -c 2 -a 0 -i 8 -k AGT
+ -t 0.544180877 -s 2 -d 1 -p ack -e 40 -c 2 -a 0 -i 8 -k RTR 
- -t 0.544180877 -s 2 -d 1 -p ack -e 40 -c 2 -a 0 -i 8 -k RTR
h -t 0.544180877 -s 2 -d 1 -p ack -e 40 -c 2 -a 0 -i 8 -k RTR
r -t 0.546028234 -s 1 -d 1 -p ack -e 40 -c 2 -a 0 -i 5 -k AGT
+ -t 0.546028234 -s 1 -d -1 -p tcp -e 1040 -c 2 -a 0 -i 9 -k AGT 
- -t 0.546028234 -s 1 -d -1 -p tcp -e 1040 -c 2 -a 0 -i 9 -k AGT
h -t 0.546028234 -s 1 -d -1 -p tcp -e 1040 -c 2 -a 0 -i 9 -k AGT
+ -t 0.546028234 -s 1 -d -1 -p tcp -e 1040 -c 2 -a 0 -i 10 -k AGT 
- -t 0.546028234 -s 1 -d -1 -p tcp -e 1040 -c 2 -a 0 -i 10 -k AGT
h -t 0.546028234 -s 1 -d -1 -p tcp -e 1040 -c 2 -a 0 -i 10 -k AGT
+ -t 0.546028234 -s 1 -d 2 -p tcp -e 1040 -c 2 -a 0 -i 9 -k RTR 
- -t 0.546028234 -s 1 -d 2 -p tcp -e 1040 -c 2 -a 0 -i 9 -k RTR
h -t 0.546028234 -s 1 -d 2 -p tcp -e 1040 -c 2 -a 0 -i 9 -k RTR
+ -t 0.546028234 -s 1 -d 2 -p tcp -e 1040 -c 2 -a 0 -i 10 -k RTR 
- -t 0.546028234 -s 1 -d 2 -p tcp -e 1040 -c 2 -a 0 -i 10 -k RTR
h -t 0.546028234 -s 1 -d 2 -p tcp -e 1040 -c 2 -a 0 -i 10 -k RTR
r -t 0.547876709 -s 1 -d 1 -p ack -e 40 -c 2 -a 0 -i 8 -k AGT
+ -t 0.547876709 -s 1 -d -1 -p tcp -e 1040 -c 2 -a 0 -i 11 -k AGT 
- -t 0.547876709 -s 1 -d -1 -p tcp -e 1040 -c 2 -a 0 -i 11 -k AGT
h -t 0.547876709 -s 1 -d -1 -p tcp -e 1040 -c 2 -a 0 -i 11 -k AGT
+ -t 0.547876709 -s 1 -d -1 -p tcp -e 1040 -c 2 -a 0 -i 12 -k AGT 
- -t 0.547876709 -s 1 -d -1 -p tcp -e 1040 -c 2 -a 0 -i 12 -k AGT
h -t 0.547876709 -s 1 -d -1 -p tcp -e 1040 -c 2 -a 0 -i 12 -k AGT
+ -t 0.547876709 -s 1 -d 2 -p tcp -e 1040 -c 2 -a 0 -i 11 -k RTR 
- -t 0.547876709 -s 1 -d 2 -p tcp -e 1040 -c 2 -a 0 -i 11 -k RTR
h -t 0.547876709 -s 1 -d 2 -p tcp -e 1040 -c 2 -a 0 -i 11 -k RTR
+ -t 0.547876709 -s 1 -d 2 -p tcp -e 1040 -c 2 -a 0 -i 12 -k RTR 
- -t 0.547876709 -s 1 -d 2 -p tcp -e 1040 -c 2 -a 0 -i 12 -k RTR
h -t 0.547876709 -s 1 -d 2 -p tcp -e 1040 -c 2 -a 0 -i 12 -k RTR
r -t 0.557904065 -s 2 -d 2 -p tcp -e 1040 -c 2 -a 0 -i 7 -k AGT
+ -t 0.557904065 -s 2 -d -1 -p ack -e 40 -c 2 -a 0 -i 13 -k AGT 
- -t 0.557904065 -s 2 -d -1 -p ack -e 40 -c 2 -a 0 -i 13 -k AGT
h -t 0.557904065 -s 2 -d -1 -p ack -e 40 -c 2 -a 0 -i 13 -k AGT
+ -t 0.557904065 -s 2 -d 1 -p ack -e 40 -c 2 -a 0 -i 13 -k RTR 
- -t 0.557904065 -s 2 -d 1 -p ack -e 40 -c 2 -a 0 -i 13 -k RTR
h -t 0.557904065 -s 2 -d 1 -p ack -e 40 -c 2 -a 0 -i 13 -k RTR
r -t 0.559791415 -s 1 -d 1 -p ack -e 40 -c 2 -a 0 -i 13 -k AGT
+ -t 0.559791415 -s 1 -d -1 -p tcp -e 1040 -c 2 -a 0 -i 14 -k AGT 
- -t 0.559791415 -s 1 -d -1 -p tcp -e 1040 -c 2 -a 0 -i 14 -k AGT
h -t 0.559791415 -s 1 -d -1 -p tcp -e 1040 -c 2 -a 0 -i 14 -k AGT
+ -t 0.559791415 -s 1 -d -1 -p tcp -e 1040 -c 2 -a 0 -i 15 -k AGT 
- -t 0.559791415 -s 1 -d -1 -p tcp -e 1040 -c 2 -a 0 -i 15 -k AGT
h -t 0.559791415 -s 1 -d -1 -p tcp -e 1040 -c 2 -a 0 -i 15 -k AGT
+ -t 0.559791415 -s 1 -d 2 -p tcp -e 1040 -c 2 -a 0 -i 14 -k RTR 
- -t 0.559791415 -s 1 -d 2 -p tcp -e 1040 -c 2 -a 0 -i 14 -k RTR
h -t 0.559791415 -s 1 -d 2 -p tcp -e 1040 -c 2 -a 0 -i 14 -k RTR
+ -t 0.559791415 -s 1 -d 2 -p tcp -e 1040 -c 2 -a 0 -i 15 -k RTR 
- -t 0.559791415 -s 1 -d 2 -p tcp -e 1040 -c 2 -a 0 -i 15 -k RTR
h -t 0.559791415 -s 1 -d 2 -p tcp -e 1040 -c 2 -a 0 -i 15 -k RTR
r -t 0.570018765 -s 2 -d 2 -p tcp -e 1040 -c 2 -a 0 -i 9 -k AGT
+ -t 0.570018765 -s 2 -d -1 -p ack -e 40 -c 2 -a 0 -i 16 -k AGT 
- -t 0.570018765 -s 2 -d -1 -p ack -e 40 -c 2 -a 0 -i 16 -k AGT
h -t 0.570018765 -s 2 -d -1 -p ack -e 40 -c 2 -a 0 -i 16 -k AGT
+ -t 0.570018765 -s 2 -d 1 -p ack -e 40 -c 2 -a 0 -i 16 -k RTR 
- -t 0.570018765 -s 2 -d 1 -p ack -e 40 -c 2 -a 0 -i 16 -k RTR
h -t 0.570018765 -s 2 -d 1 -p ack -e 40 -c 2 -a 0 -i 16 -k RTR
r -t 0.580247224 -s 2 -d 2 -p tcp -e 1040 -c 2 -a 0 -i 10 -k AGT
+ -t 0.580247224 -s 2 -d -1 -p ack -e 40 -c 2 -a 0 -i 17 -k AGT 
- -t 0.580247224 -s 2 -d -1 -p ack -e 40 -c 2 -a 0 -i 17 -k AGT
h -t 0.580247224 -s 2 -d -1 -p ack -e 40 -c 2 -a 0 -i 17 -k AGT
+ -t 0.580247224 -s 2 -d 1 -p ack -e 40 -c 2 -a 0 -i 17 -k RTR 
- -t 0.580247224 -s 2 -d 1 -p ack -e 40 -c 2 -a 0 -i 17 -k RTR
h -t 0.580247224 -s 2 -d 1 -p ack -e 40 -c 2 -a 0 -i 17 -k RTR
r -t 0.582254564 -s 1 -d 1 -p ack -e 40 -c 2 -a 0 -i 16 -k AGT
+ -t 0.582254564 -s 1 -d -1 -p tcp -e 1040 -c 2 -a 0 -i 18 -k AGT 
- -t 0.582254564 -s 1 -d -1 -p tcp -e 1040 -c 2 -a 0 -i 18 -k AGT
h -t 0.582254564 -s 1 -d -1 -p tcp -e 1040 -c 2 -a 0 -i 18 -k AGT
+ -t 0.582254564 -s 1 -d -1 -p tcp -e 1040 -c 2 -a 0 -i 19 -k AGT 
- -t 0.582254564 -s 1 -d -1 -p tcp -e 1040 -c 2 -a 0 -i 19 -k AGT
h -t 0.582254564 -s 1 -d -1 -p tcp -e 1040 -c 2 -a 0 -i 19 -k AGT
+ -t 0.582254564 -s 1 -d 2 -p tcp -e 1040 -c 2 -a 0 -i 18 -k RTR 
- -t 0.582254564 -s 1 -d 2 -p tcp -e 1040 -c 2 -a 0 -i 18 -k RTR
h -t 0.582254564 -s 1 -d 2 -p tcp -e 1040 -c 2 -a 0 -i 18 -k RTR
+ -t 0.582254564 -s 1 -d 2 -p tcp -e 1040 -c 2 -a 0 -i 19 -k RTR 
- -t 0.582254564 -s 1 -d 2 -p tcp -e 1040 -c 2 -a 0 -i 19 -k RTR
h -t 0.582254564 -s 1 -d 2 -p tcp -e 1040 -c 2 -a 0 -i 19 -k RTR
r -t 0.584443015 -s 1 -d 1 -p ack -e 40 -c 2 -a 0 -i 17 -k AGT
+ -t 0.584443015 -s 1 -d -1 -p tcp -e 1040 -c 2 -a 0 -i 20 -k AGT 
- -t 0.584443015 -s 1 -d -1 -p tcp -e 1040 -c 2 -a 0 -i 20 -k AGT
h -t 0.584443015 -s 1 -d -1 -p tcp -e 1040 -c 2 -a 0 -i 20 -k AGT
+ -t 0.584443015 -s 1 -d -1 -p tcp -e 1040 -c 2 -a 0 -i 21 -k AGT 
- -t 0.584443015 -s 1 -d -1 -p tcp -e 1040 -c 2 -a 0 -i 21 -k AGT
h -t 0.584443015 -s 1 -d -1 -p tcp -e 1040 -c 2 -a 0 -i 21 -k AGT
+ -t 0.584443015 -s 1 -d 2 -p tcp -e 1040 -c 2 -a 0 -i 20 -k RTR 
- -t 0.584443015 -s 1 -d 2 -p tcp -e 1040 -c 2 -a 0 -i 20 -k RTR
h -t 0.584443015 -s 1 -d 2 -p tcp -e 1040 -c 2 -a 0 -i 20 -k RTR
+ -t 0.584443015 -s 1 -d 2 -p tcp -e 1040 -c 2 -a 0 -i 21 -k RTR 
- -t 0.584443015 -s 1 -d 2 -p tcp -e 1040 -c 2 -a 0 -i 21 -k RTR
h -t 0.584443015 -s 1 -d 2 -p tcp -e 1040 -c 2 -a 0 -i 21 -k RTR
r -t 0.594290353 -s 2 -d 2 -p tcp -e 1040 -c 2 -a 0 -i 11 -k AGT
+ -t 0.594290353 -s 2 -d -1 -p ack -e 40 -c 2 -a 0 -i 22 -k AGT 
- -t 0.594290353 -s 2 -d -1 -p ack -e 40 -c 2 -a 0 -i 22 -k AGT
h -t 0.594290353 -s 2 -d -1 -p ack -e 40 -c 2 -a 0 -i 22 -k AGT
+ -t 0.594290353 -s 2 -d 1 -p ack -e 40 -c 2 -a 0 -i 22 -k RTR 
- -t 0.594290353 -s 2 -d 1 -p ack -e 40 -c 2 -a 0 -i 22 -k RTR
h -t 0.594290353 -s 2 -d 1 -p ack -e 40 -c 2 -a 0 -i 22 -k RTR
r -t 0.596157686 -s 1 -d 1 -p ack -e 40 -c 2 -a 0 -i 22 -k AGT
+ -t 0.596157686 -s 1 -d -1 -p tcp -e 1040 -c 2 -a 0 -i 23 -k AGT 
- -t 0.596157686 -s 1 -d -1 -p tcp -e 1040 -c 2 -a 0 -i 23 -k AGT
h -t 0.596157686 -s 1 -d -1 -p tcp -e 1040 -c 2 -a 0 -i 23 -k AGT
+ -t 0.596157686 -s 1 -d -1 -p tcp -e 1040 -c 2 -a 0 -i 24 -k AGT 
- -t 0.596157686 -s 1 -d -1 -p tcp -e 1040 -c 2 -a 0 -i 24 -k AGT
h -t 0.596157686 -s 1 -d -1 -p tcp -e 1040 -c 2 -a 0 -i 24 -k AGT
+ -t 0.596157686 -s 1 -d 2 -p tcp -e 1040 -c 2 -a 0 -i 23 -k RTR 
- -t 0.596157686 -s 1 -d 2 -p tcp -e 1040 -c 2 -a 0 -i 23 -k RTR
h -t 0.596157686 -s 1 -d 2 -p tcp -e 1040 -c 2 -a 0 -i 23 -k RTR
+ -t 0.596157686 -s 1 -d 2 -p tcp -e 1040 -c 2 -a 0 -i 24 -k RTR 
- -t 0.596157686 -s 1 -d 2 -p tcp -e 1040 -c 2 -a 0 -i 24 -k RTR
h -t 0.596157686 -s 1 -d 2 -p tcp -e 1040 -c 2 -a 0 -i 24 -k RTR
r -t 0.606265017 -s 2 -d 2 -p tcp -e 1040 -c 2 -a 0 -i 12 -k AGT
+ -t 0.606265017 -s 2 -d -1 -p ack -e 40 -c 2 -a 0 -i 25 -k AGT 
- -t 0.606265017 -s 2 -d -1 -p ack -e 40 -c 2 -a 0 -i 25 -k AGT
h -t 0.606265017 -s 2 -d -1 -p ack -e 40 -c 2 -a 0 -i 25 -k AGT
+ -t 0.606265017 -s 2 -d 1 -p ack -e 40 -c 2 -a 0 -i 25 -k RTR 
- -t 0.606265017 -s 2 -d 1 -p ack -e 40 -c 2 -a 0 -i 25 -k RTR
h -t 0.606265017 -s 2 -d 1 -p ack -e 40 -c 2 -a 0 -i 25 -k RTR
r -t 0.608192344 -s 1 -d 1 -p ack -e 40 -c 2 -a 0 -i 25 -k AGT
+ -t 0.608192344 -s 1 -d -1 -p tcp -e 1040 -c 2 -a 0 -i 26 -k AGT 
- -t 0.608192344 -s 1 -d -1 -p tcp -e 1040 -c 2 -a 0 -i 26 -k AGT
h -t 0.608192344 -s 1 -d -1 -p tcp -e 1040 -c 2 -a 0 -i 26 -k AGT
+ -t 0.608192344 -s 1 -d -1 -p tcp -e 1040 -c 2 -a 0 -i 27 -k AGT 
- -t 0.608192344 -s 1 -d -1 -p tcp -e 1040 -c 2 -a 0 -i 27 -k AGT
h -t 0.608192344 -s 1 -d -1 -p tcp -e 1040 -c 2 -a 0 -i 27 -k AGT
+ -t 0.608192344 -s 1 -d 2 -p tcp -e 1040 -c 2 -a 0 -i 26 -k RTR 
- -t 0.608192344 -s 1 -d 2 -p tcp -e 1040 -c 2 -a 0 -i 26 -k RTR
h -t 0.608192344 -s 1 -d 2 -p tcp -e 1040 -c 2 -a 0 -i 26 -k RTR
+ -t 0.608192344 -s 1 -d 2 -p tcp -e 1040 -c 2 -a 0 -i 27 -k RTR 
- -t 0.608192344 -s 1 -d 2 -p tcp -e 1040 -c 2 -a 0 -i 27 -k RTR
h -t 0.608192344 -s 1 -d 2 -p tcp -e 1040 -c 2 -a 0 -i 27 -k RTR
r -t 0.618079670 -s 2 -d 2 -p tcp -e 1040 -c 2 -a 0 -i 14 -k AGT
+ -t 0.618079670 -s 2 -d -1 -p ack -e 40 -c 2 -a 0 -i 28 -k AGT 
- -t 0.618079670 -s 2 -d -1 -p ack -e 40 -c 2 -a 0 -i 28 -k AGT
h -t 0.618079670 -s 2 -d -1 -p ack -e 40 -c 2 -a 0 -i 28 -k AGT
+ -t 0.618079670 -s 2 -d 1 -p ack -e 40 -c 2 -a 0 -i 28 -k RTR 
- -t 0.618079670 -s 2 -d 1 -p ack -e 40 -c 2 -a 0 -i 28 -k RTR
h -t 0.618079670 -s 2 -d 1 -p ack -e 40 -c 2 -a 0 -i 28 -k RTR
r -t 0.619946991 -s 1 -d 1 -p ack -e 40 -c 2 -a 0 -i 28 -k AGT
+ -t 0.619946991 -s 1 -d -1 -p tcp -e 1040 -c 2 -a 0 -i 29 -k AGT 
- -t 0.619946991 -s 1 -d -1 -p tcp -e 1040 -c 2 -a 0 -i 29 -k AGT
h -t 0.619946991 -s 1 -d -1 -p tcp -e 1040 -c 2 -a 0 -i 29 -k AGT
+ -t 0.619946991 -s 1 -d -1 -p tcp -e 1040 -c 2 -a 0 -i 30 -k AGT 
- -t 0.619946991 -s 1 -d -1 -p tcp -e 1040 -c 2 -a 0 -i 30 -k AGT
h -t 0.619946991 -s 1 -d -1 -p tcp -e 1040 -c 2 -a 0 -i 30 -k AGT
+ -t 0.619946991 -s 1 -d 2 -p tcp -e 1040 -c 2 -a 0 -i 29 -k RTR 
- -t 0.619946991 -s 1 -d 2 -p tcp -e 1040 -c 2 -a 0 -i 29 -k RTR
h -t 0.619946991 -s 1 -d 2 -p tcp -e 1040 -c 2 -a 0 -i 29 -k RTR
+ -t 0.619946991 -s 1 -d 2 -p tcp -e 1040 -c 2 -a 0 -i 30 -k RTR 
- -t 0.619946991 -s 1 -d 2 -p tcp -e 1040 -c 2 -a 0 -i 30 -k RTR
h -t 0.619946991 -s 1 -d 2 -p tcp -e 1040 -c 2 -a 0 -i 30 -k RTR
r -t 0.630034312 -s 2 -d 2 -p tcp -e 1040 -c 2 -a 0 -i 15 -k AGT
+ -t 0.630034312 -s 2 -d -1 -p ack -e 40 -c 2 -a 0 -i 31 -k AGT 
- -t 0.630034312 -s 2 -d -1 -p ack -e 40 -c 2 -a 0 -i 31 -k AGT
h -t 0.630034312 -s 2 -d -1 -p ack -e 40 -c 2 -a 0 -i 31 -k AGT
+ -t 0.630034312 -s 2 -d 1 -p ack -e 40 -c 2 -a 0 -i 31 -k RTR 
- -t 0.630034312 -s 2 -d 1 -p ack -e 40 -c 2 -a 0 -i 31 -k RTR
h -t 0.630034312 -s 2 -d 1 -p ack -e 40 -c 2 -a 0 -i 31 -k RTR
r -t 0.631961627 -s 1 -d 1 -p ack -e 40 -c 2 -a 0 -i 31 -k AGT
+ -t 0.631961627 -s 1 -d -1 -p tcp -e 1040 -c 2 -a 0 -i 32 -k AGT 
- -t 0.631961627 -s 1 -d -1 -p tcp -e 1040 -c 2 -a 0 -i 32 -k AGT
h -t 0.631961627 -s 1 -d -1 -p tcp -e 1040 -c 2 -a 0 -i 32 -k AGT
+ -t 0.631961627 -s 1 -d -1 -p tcp -e 1040 -c 2 -a 0 -i 33 -k AGT 
- -t 0.631961627 -s 1 -d -1 -p tcp -e 1040 -c 2 -a 0 -i 33 -k AGT
h -t 0.631961627 -s 1 -d -1 -p tcp -e 1040 -c 2 -a 0 -i 33 -k AGT
+ -t 0.631961627 -s 1 -d 2 -p tcp -e 1040 -c 2 -a 0 -i 32 -k RTR 
- -t 0.631961627 -s 1 -d 2 -p tcp -e 1040 -c 2 -a 0 -i 32 -k RTR
h -t 0.631961627 -s 1 -d 2 -p tcp -e 1040 -c 2 -a 0 -i 32 -k RTR
+ -t 0.631961627 -s 1 -d 2 -p tcp -e 1040 -c 2 -a 0 -i 33 -k RTR 
- -t 0.631961627 -s 1 -d 2 -p tcp -e 1040 -c 2 -a 0 -i 33 -k RTR
h -t 0.631961627 -s 1 -d 2 -p tcp -e 1040 -c 2 -a 0 -i 33 -k RTR
r -t 0.642228941 -s 2 -d 2 -p tcp -e 1040 -c 2 -a 0 -i 18 -k AGT
+ -t 0.642228941 -s 2 -d -1 -p ack -e 40 -c 2 -a 0 -i 34 -k AGT 
- -t 0.642228941 -s 2 -d -1 -p ack -e 40 -c 2 -a 0 -i 34 -k AGT
h -t 0.642228941 -s 2 -d -1 -p ack -e 40 -c 2 -a 0 -i 34 -k AGT
+ -t 0.642228941 -s 2 -d 1 -p ack -e 40 -c 2 -a 0 -i 34 -k RTR 
- -t 0.642228941 -s 2 -d 1 -p ack -e 40 -c 2 -a 0 -i 34 -k RTR
h -t 0.642228941 -s 2 -d 1 -p ack -e 40 -c 2 -a 0 -i 34 -k RTR
r -t 0.644256251 -s 1 -d 1 -p ack -e 40 -c 2 -a 0 -i 34 -k AGT
+ -t 0.644256251 -s 1 -d -1 -p tcp -e 1040 -c 2 -a 0 -i 35 -k AGT 
- -t 0.644256251 -s 1 -d -1 -p tcp -e 1040 -c 2 -a 0 -i 35 -k AGT
h -t 0.644256251 -s 1 -d -1 -p tcp -e 1040 -c 2 -a 0 -i 35 -k AGT
+ -t 0.644256251 -s 1 -d -1 -p tcp -e 1040 -c 2 -a 0 -i 36 -k AGT 
- -t 0.644256251 -s 1 -d -1 -p tcp -e 1040 -c 2 -a 0 -i 36 -k AGT
h -t 0.644256251 -s 1 -d -1 -p tcp -e 1040 -c 2 -a 0 -i 36 -k AGT
+ -t 0.644256251 -s 1 -d 2 -p tcp -e 1040 -c 2 -a 0 -i 35 -k RTR 
- -t 0.644256251 -s 1 -d 2 -p tcp -e 1040 -c 2 -a 0 -i 35 -k RTR
h -t 0.644256251 -s 1 -d 2 -p tcp -e 1040 -c 2 -a 0 -i 35 -k RTR
+ -t 0.644256251 -s 1 -d 2 -p tcp -e 1040 -c 2 -a 0 -i 36 -k RTR 
- -t 0.644256251 -s 1 -d 2 -p tcp -e 1040 -c 2 -a 0 -i 36 -k RTR
h -t 0.644256251 -s 1 -d 2 -p tcp -e 1040 -c 2 -a 0 -i 36 -k RTR
r -t 0.654483559 -s 2 -d 2 -p tcp -e 1040 -c 2 -a 0 -i 19 -k AGT
+ -t 0.654483559 -s 2 -d -1 -p ack -e 40 -c 2 -a 0 -i 37 -k AGT 
- -t 0.654483559 -s 2 -d -1 -p ack -e 40 -c 2 -a 0 -i 37 -k AGT
h -t 0.654483559 -s 2 -d -1 -p ack -e 40 -c 2 -a 0 -i 37 -k AGT
+ -t 0.654483559 -s 2 -d 1 -p ack -e 40 -c 2 -a 0 -i 37 -k RTR 
- -t 0.654483559 -s 2 -d 1 -p ack -e 40 -c 2 -a 0 -i 37 -k RTR
h -t 0.654483559 -s 2 -d 1 -p ack -e 40 -c 2 -a 0 -i 37 -k RTR
r -t 0.656430862 -s 1 -d 1 -p ack -e 40 -c 2 -a 0 -i 37 -k AGT
+ -t 0.656430862 -s 1 -d -1 -p tcp -e 1040 -c 2 -a 0 -i 38 -k AGT 
- -t 0.656430862 -s 1 -d -1 -p tcp -e 1040 -c 2 -a 0 -i 38 -k AGT
h -t 0.656430862 -s 1 -d -1 -p tcp -e 1040 -c 2 -a 0 -i 38 -k AGT
+ -t 0.656430862 -s 1 -d -1 -p tcp -e 1040 -c 2 -a 0 -i 39 -k AGT 
- -t 0.656430862 -s 1 -d -1 -p tcp -e 1040 -c 2 -a 0 -i 39 -k AGT
h -t 0.656430862 -s 1 -d -1 -p tcp -e 1040 -c 2 -a 0 -i 39 -k AGT
+ -t 0.656430862 -s 1 -d 2 -p tcp -e 1040 -c 2 -a 0 -i 38 -k RTR 
- -t 0.656430862 -s 1 -d 2 -p tcp -e 1040 -c 2 -a 0 -i 38 -k RTR
h -t 0.656430862 -s 1 -d 2 -p tcp -e 1040 -c 2 -a 0 -i 38 -k RTR
+ -t 0.656430862 -s 1 -d 2 -p tcp -e 1040 -c 2 -a 0 -i 39 -k RTR 
- -t 0.656430862 -s 1 -d 2 -p tcp -e 1040 -c 2 -a 0 -i 39 -k RTR
h -t 0.656430862 -s 1 -d 2 -p tcp -e 1040 -c 2 -a 0 -i 39 -k RTR
r -t 0.666498165 -s 2 -d 2 -p tcp -e 1040 -c 2 -a 0 -i 20 -k AGT
+ -t 0.666498165 -s 2 -d -1 -p ack -e 40 -c 2 -a 0 -i 40 -k AGT 
- -t 0.666498165 -s 2 -d -1 -p ack -e 40 -c 2 -a 0 -i 40 -k AGT
h -t 0.666498165 -s 2 -d -1 -p ack -e 40 -c 2 -a 0 -i 40 -k AGT
+ -t 0.666498165 -s 2 -d 1 -p ack -e 40 -c 2 -a 0 -i 40 -k RTR 
- -t 0.666498165 -s 2 -d 1 -p ack -e 40 -c 2 -a 0 -i 40 -k RTR
h -t 0.666498165 -s 2 -d 1 -p ack -e 40 -c 2 -a 0 -i 40 -k RTR
r -t 0.668605462 -s 1 -d 1 -p ack -e 40 -c 2 -a 0 -i 40 -k AGT
+ -t 0.668605462 -s 1 -d -1 -p tcp -e 1040 -c 2 -a 0 -i 41 -k AGT 
- -t 0.668605462 -s 1 -d -1 -p tcp -e 1040 -c 2 -a 0 -i 41 -k AGT
h -t 0.668605462 -s 1 -d -1 -p tcp -e 1040 -c 2 -a 0 -i 41 -k AGT
+ -t 0.668605462 -s 1 -d -1 -p tcp -e 1040 -c 2 -a 0 -i 42 -k AGT 
- -t 0.668605462 -s 1 -d -1 -p tcp -e 1040 -c 2 -a 0 -i 42 -k AGT
h -t 0.668605462 -s 1 -d -1 -p tcp -e 1040 -c 2 -a 0 -i 42 -k AGT
+ -t 0.668605462 -s 1 -d 2 -p tcp -e 1040 -c 2 -a 0 -i 41 -k RTR 
- -t 0.668605462 -s 1 -d 2 -p tcp -e 1040 -c 2 -a 0 -i 41 -k RTR
h -t 0.668605462 -s 1 -d 2 -p tcp -e 1040 -c 2 -a 0 -i 41 -k RTR
+ -t 0.668605462 -s 1 -d 2 -p tcp -e 1040 -c 2 -a 0 -i 42 -k RTR 
- -t 0.668605462 -s 1 -d 2 -p tcp -e 1040 -c 2 -a 0 -i 42 -k RTR
h -t 0.668605462 -s 1 -d 2 -p tcp -e 1040 -c 2 -a 0 -i 42 -k RTR
r -t 0.678452759 -s 2 -d 2 -p tcp -e 1040 -c 2 -a 0 -i 21 -k AGT
+ -t 0.678452759 -s 2 -d -1 -p ack -e 40 -c 2 -a 0 -i 43 -k AGT 
- -t 0.678452759 -s 2 -d -1 -p ack -e 40 -c 2 -a 0 -i 43 -k AGT
h -t 0.678452759 -s 2 -d -1 -p ack -e 40 -c 2 -a 0 -i 43 -k AGT
+ -t 0.678452759 -s 2 -d 1 -p ack -e 40 -c 2 -a 0 -i 43 -k RTR 
- -t 0.678452759 -s 2 -d 1 -p ack -e 40 -c 2 -a 0 -i 43 -k RTR
h -t 0.678452759 -s 2 -d 1 -p ack -e 40 -c 2 -a 0 -i 43 -k RTR
r -t 0.680460050 -s 1 -d 1 -p ack -e 40 -c 2 -a 0 -i 43 -k AGT
+ -t 0.680460050 -s 1 -d -1 -p tcp -e 1040 -c 2 -a 0 -i 44 -k AGT 
- -t 0.680460050 -s 1 -d -1 -p tcp -e 1040 -c 2 -a 0 -i 44 -k AGT
h -t 0.680460050 -s 1 -d -1 -p tcp -e 1040 -c 2 -a 0 -i 44 -k AGT
+ -t 0.680460050 -s 1 -d -1 -p tcp -e 1040 -c 2 -a 0 -i 45 -k AGT 
- -t 0.680460050 -s 1 -d -1 -p tcp -e 1040 -c 2 -a 0 -i 45 -k AGT
h -t 0.680460050 -s 1 -d -1 -p tcp -e 1040 -c 2 -a 0 -i 45 -k AGT
+ -t 0.680460050 -s 1 -d 2 -p tcp -e 1040 -c 2 -a 0 -i 44 -k RTR 
- -t 0.680460050 -s 1 -d 2 -p tcp -e 1040 -c 2 -a 0 -i 44 -k RTR
h -t 0.680460050 -s 1 -d 2 -p tcp -e 1040 -c 2 -a 0 -i 44 -k RTR
+ -t 0.680460050 -s 1 -d 2 -p tcp -e 1040 -c 2 -a 0 -i 45 -k RTR 
- -t 0.680460050 -s 1 -d 2 -p tcp -e 1040 -c 2 -a 0 -i 45 -k RTR
h -t 0.680460050 -s 1 -d 2 -p tcp -e 1040 -c 2 -a 0 -i 45 -k RTR
r -t 0.690407341 -s 2 -d 2 -p tcp -e 1040 -c 2 -a 0 -i 23 -k AGT
+ -t 0.690407341 -s 2 -d -1 -p ack -e 40 -c 2 -a 0 -i 46 -k AGT 
- -t 0.690407341 -s 2 -d -1 -p ack -e 40 -c 2 -a 0 -i 46 -k AGT
h -t 0.690407341 -s 2 -d -1 -p ack -e 40 -c 2 -a 0 -i 46 -k AGT
+ -t 0.690407341 -s 2 -d 1 -p ack -e 40 -c 2 -a 0 -i 46 -k RTR 
- -t 0.690407341 -s 2 -d 1 -p ack -e 40 -c 2 -a 0 -i 46 -k RTR
h -t 0.690407341 -s 2 -d 1 -p ack -e 40 -c 2 -a 0 -i 46 -k RTR
n -t 0.700000 -s 1 -x 295.049745 -y 401.072519 -U -54.422367 -V -25.262738 -T 4.594614
n -t 0.700000 -s 3 -x 118.885820 -y 113.978226 -U 5.754621 -V 59.723399 -T 4.537950
r -t 0.700235723 -s 2 -d 2 -p tcp -e 1040 -c 2 -a 0 -i 24 -k AGT
+ -t 0.700235723 -s 2 -d -1 -p ack -e 40 -c 2 -a 0 -i 47 -k AGT 
- -t 0.700235723 -s 2 -d -1 -p ack -e 40 -c 2 -a 0 -i 47 -k AGT
h -t 0.700235723 -s 2 -d -1 -p ack -e 40 -c 2 -a 0 -i 47 -k AGT
+ -t 0.700235723 -s 2 -d 1 -p ack -e 40 -c 2 -a 0 -i 47 -k RTR 
- -t 0.700235723 -s 2 -d 1 -p ack -e 40 -c 2 -a 0 -i 47 -k RTR
h -t 0.700235723 -s 2 -d 1 -p ack -e 40 -c 2 -a 0 -i 47 -k RTR
r -t 0.710284097 -s 2 -d 2 -p tcp -e 1040 -c 2 -a 0 -i 26 -k AGT
+ -t 0.710284097 -s 2 -d -1 -p ack -e 40 -c 2 -a 0 -i 48 -k AGT 
- -t 0.710284097 -s 2 -d -1 -p ack -e 40 -c 2 -a 0 -i 48 -k AGT
h -t 0.710284097 -s 2 -d -1 -p ack -e 40 -c 2 -a 0 -i 48 -k AGT
+ -t 0.710284097 -s 2 -d 1 -p ack -e 40 -c 2 -a 0 -i 48 -k RTR 
- -t 0.710284097 -s 2 -d 1 -p ack -e 40 -c 2 -a 0 -i 48 -k RTR
h -t 0.710284097 -s 2 -d 1 -p ack -e 40 -c 2 -a 0 -i 48 -k RTR
r -t 0.712271371 -s 1 -d 1 -p ack -e 40 -c 2 -a 0 -i 46 -k AGT
+ -t 0.712271371 -s 1 -d -1 -p tcp -e 1040 -c 2 -a 0 -i 49 -k AGT 
- -t 0.712271371 -s 1 -d -1 -p tcp -e 1040 -c 2 -a 0 -i 49 -k AGT
h -t 0.712271371 -s 1 -d -1 -p tcp -e 1040 -c 2 -a 0 -i 49 -k AGT
+ -t 0.712271371 -s 1 -d -1 -p tcp -e 1040 -c 2 -a 0 -i 50 -k AGT 
- -t 0.712271371 -s 1 -d -1 -p tcp -e 1040 -c 2 -a 0 -i 50 -k AGT
h -t 0.712271371 -s 1 -d -1 -p tcp -e 1040 -c 2 -a 0 -i 50 -k AGT
+ -t 0.712271371 -s 1 -d 2 -p tcp -e 1040 -c 2 -a 0 -i 49 -k RTR 
- -t 0.712271371 -s 1 -d 2 -p tcp -e 1040 -c 2 -a 0 -i 49 -k RTR
h -t 0.712271371 -s 1 -d 2 -p tcp -e 1040 -c 2 -a 0 -i 49 -k RTR
+ -t 0.712271371 -s 1 -d 2 -p tcp -e 1040 -c 2 -a 0 -i 50 -k RTR 
- -t 0.712271371 -s 1 -d 2 -p tcp -e 1040 -c 2 -a 0 -i 50 -k RTR
h -t 0.712271371 -s 1 -d 2 -p tcp -e 1040 -c 2 -a 0 -i 50 -k RTR
r -t 0.714259735 -s 1 -d 1 -p ack -e 40 -c 2 -a 0 -i 47 -k AGT
+ -t 0.714259735 -s 1 -d -1 -p tcp -e 1040 -c 2 -a 0 -i 51 -k AGT 
- -t 0.714259735 -s 1 -d -1 -p tcp -e 1040 -c 2 -a 0 -i 51 -k AGT
h -t 0.714259735 -s 1 -d -1 -p tcp -e 1040 -c 2 -a 0 -i 51 -k AGT
+ -t 0.714259735 -s 1 -d -1 -p tcp -e 1040 -c 2 -a 0 -i 52 -k AGT 
- -t 0.714259735 -s 1 -d -1 -p tcp -e 1040 -c 2 -a 0 -i 52 -k AGT
h -t 0.714259735 -s 1 -d -1 -p tcp -e 1040 -c 2 -a 0 -i 52 -k AGT
+ -t 0.714259735 -s 1 -d 2 -p tcp -e 1040 -c 2 -a 0 -i 51 -k RTR 
- -t 0.714259735 -s 1 -d 2 -p tcp -e 1040 -c 2 -a 0 -i 51 -k RTR
h -t 0.714259735 -s 1 -d 2 -p tcp -e 1040 -c 2 -a 0 -i 51 -k RTR
+ -t 0.714259735 -s 1 -d 2 -p tcp -e 1040 -c 2 -a 0 -i 52 -k RTR 
- -t 0.714259735 -s 1 -d 2 -p tcp -e 1040 -c 2 -a 0 -i 52 -k RTR
h -t 0.714259735 -s 1 -d 2 -p tcp -e 1040 -c 2 -a 0 -i 52 -k RTR
r -t 0.724107006 -s 2 -d 2 -p tcp -e 1040 -c 2 -a 0 -i 27 -k AGT
+ -t 0.724107006 -s 2 -d -1 -p ack -e 40 -c 2 -a 0 -i 53 -k AGT 
- -t 0.724107006 -s 2 -d -1 -p ack -e 40 -c 2 -a 0 -i 53 -k AGT
h -t 0.724107006 -s 2 -d -1 -p ack -e 40 -c 2 -a 0 -i 53 -k AGT
+ -t 0.724107006 -s 2 -d 1 -p ack -e 40 -c 2 -a 0 -i 53 -k RTR 
- -t 0.724107006 -s 2 -d 1 -p ack -e 40 -c 2 -a 0 -i 53 -k RTR
h -t 0.724107006 -s 2 -d 1 -p ack -e 40 -c 2 -a 0 -i 53 -k RTR
r -t 0.734015359 -s 2 -d 2 -p tcp -e 1040 -c 2 -a 0 -i 29 -k AGT
+ -t 0.734015359 -s 2 -d -1 -p ack -e 40 -c 2 -a 0 -i 54 -k AGT 
- -t 0.734015359 -s 2 -d -1 -p ack -e 40 -c 2 -a 0 -i 54 -k AGT
h -t 0.734015359 -s 2 -d -1 -p ack -e 40 -c 2 -a 0 -i 54 -k AGT
+ -t 0.734015359 -s 2 -d 1 -p ack -e 40 -c 2 -a 0 -i 54 -k RTR 
- -t 0.734015359 -s 2 -d 1 -p ack -e 40 -c 2 -a 0 -i 54 -k RTR
h -t 0.734015359 -s 2 -d 1 -p ack -e 40 -c 2 -a 0 -i 54 -k RTR
r -t 0.735982617 -s 1 -d 1 -p ack -e 40 -c 2 -a 0 -i 48 -k AGT
+ -t 0.735982617 -s 1 -d -1 -p tcp -e 1040 -c 2 -a 0 -i 55 -k AGT 
- -t 0.735982617 -s 1 -d -1 -p tcp -e 1040 -c 2 -a 0 -i 55 -k AGT
h -t 0.735982617 -s 1 -d -1 -p tcp -e 1040 -c 2 -a 0 -i 55 -k AGT
+ -t 0.735982617 -s 1 -d -1 -p tcp -e 1040 -c 2 -a 0 -i 56 -k AGT 
- -t 0.735982617 -s 1 -d -1 -p tcp -e 1040 -c 2 -a 0 -i 56 -k AGT
h -t 0.735982617 -s 1 -d -1 -p tcp -e 1040 -c 2 -a 0 -i 56 -k AGT
+ -t 0.735982617 -s 1 -d 2 -p tcp -e 1040 -c 2 -a 0 -i 55 -k RTR 
- -t 0.735982617 -s 1 -d 2 -p tcp -e 1040 -c 2 -a 0 -i 55 -k RTR
h -t 0.735982617 -s 1 -d 2 -p tcp -e 1040 -c 2 -a 0 -i 55 -k RTR
+ -t 0.735982617 -s 1 -d 2 -p tcp -e 1040 -c 2 -a 0 -i 56 -k RTR 
- -t 0.735982617 -s 1 -d 2 -p tcp -e 1040 -c 2 -a 0 -i 56 -k RTR
h -t 0.735982617 -s 1 -d 2 -p tcp -e 1040 -c 2 -a 0 -i 56 -k RTR
r -t 0.737810959 -s 1 -d 1 -p ack -e 40 -c 2 -a 0 -i 53 -k AGT
+ -t 0.737810959 -s 1 -d -1 -p tcp -e 1040 -c 2 -a 0 -i 57 -k AGT 
- -t 0.737810959 -s 1 -d -1 -p tcp -e 1040 -c 2 -a 0 -i 57 -k AGT
h -t 0.737810959 -s 1 -d -1 -p tcp -e 1040 -c 2 -a 0 -i 57 -k AGT
+ -t 0.737810959 -s 1 -d -1 -p tcp -e 1040 -c 2 -a 0 -i 58 -k AGT 
- -t 0.737810959 -s 1 -d -1 -p tcp -e 1040 -c 2 -a 0 -i 58 -k AGT
h -t 0.737810959 -s 1 -d -1 -p tcp -e 1040 -c 2 -a 0 -i 58 -k AGT
+ -t 0.737810959 -s 1 -d 2 -p tcp -e 1040 -c 2 -a 0 -i 57 -k RTR 
- -t 0.737810959 -s 1 -d 2 -p tcp -e 1040 -c 2 -a 0 -i 57 -k RTR
h -t 0.737810959 -s 1 -d 2 -p tcp -e 1040 -c 2 -a 0 -i 57 -k RTR
+ -t 0.737810959 -s 1 -d 2 -p tcp -e 1040 -c 2 -a 0 -i 58 -k RTR 
- -t 0.737810959 -s 1 -d 2 -p tcp -e 1040 -c 2 -a 0 -i 58 -k RTR
h -t 0.737810959 -s 1 -d 2 -p tcp -e 1040 -c 2 -a 0 -i 58 -k RTR
r -t 0.747818215 -s 2 -d 2 -p tcp -e 1040 -c 2 -a 0 -i 30 -k AGT
+ -t 0.747818215 -s 2 -d -1 -p ack -e 40 -c 2 -a 0 -i 59 -k AGT 
- -t 0.747818215 -s 2 -d -1 -p ack -e 40 -c 2 -a 0 -i 59 -k AGT
h -t 0.747818215 -s 2 -d -1 -p ack -e 40 -c 2 -a 0 -i 59 -k AGT
+ -t 0.747818215 -s 2 -d 1 -p ack -e 40 -c 2 -a 0 -i 59 -k RTR 
- -t 0.747818215 -s 2 -d 1 -p ack -e 40 -c 2 -a 0 -i 59 -k RTR
h -t 0.747818215 -s 2 -d 1 -p ack -e 40 -c 2 -a 0 -i 59 -k RTR
r -t 0.749725463 -s 1 -d 1 -p ack -e 40 -c 2 -a 0 -i 54 -k AGT
+ -t 0.749725463 -s 1 -d -1 -p tcp -e 1040 -c 2 -a 0 -i 60 -k AGT 
- -t 0.749725463 -s 1 -d -1 -p tcp -e 1040 -c 2 -a 0 -i 60 -k AGT
h -t 0.749725463 -s 1 -d -1 -p tcp -e 1040 -c 2 -a 0 -i 60 -k AGT
+ -t 0.749725463 -s 1 -d 2 -p tcp -e 1040 -c 2 -a 0 -i 60 -k RTR 
- -t 0.749725463 -s 1 -d 2 -p tcp -e 1040 -c 2 -a 0 -i 60 -k RTR
h -t 0.749725463 -s 1 -d 2 -p tcp -e 1040 -c 2 -a 0 -i 60 -k RTR
r -t 0.759792710 -s 2 -d 2 -p tcp -e 1040 -c 2 -a 0 -i 32 -k AGT
+ -t 0.759792710 -s 2 -d -1 -p ack -e 40 -c 2 -a 0 -i 61 -k AGT 
- -t 0.759792710 -s 2 -d -1 -p ack -e 40 -c 2 -a 0 -i 61 -k AGT
h -t 0.759792710 -s 2 -d -1 -p ack -e 40 -c 2 -a 0 -i 61 -k AGT
+ -t 0.759792710 -s 2 -d 1 -p ack -e 40 -c 2 -a 0 -i 61 -k RTR 
- -t 0.759792710 -s 2 -d 1 -p ack -e 40 -c 2 -a 0 -i 61 -k RTR
h -t 0.759792710 -s 2 -d 1 -p ack -e 40 -c 2 -a 0 -i 61 -k RTR
r -t 0.769641031 -s 2 -d 2 -p tcp -e 1040 -c 2 -a 0 -i 33 -k AGT
+ -t 0.769641031 -s 2 -d -1 -p ack -e 40 -c 2 -a 0 -i 62 -k AGT 
- -t 0.769641031 -s 2 -d -1 -p ack -e 40 -c 2 -a 0 -i 62 -k AGT
h -t 0.769641031 -s 2 -d -1 -p ack -e 40 -c 2 -a 0 -i 62 -k AGT
+ -t 0.769641031 -s 2 -d 1 -p ack -e 40 -c 2 -a 0 -i 62 -k RTR 
- -t 0.769641031 -s 2 -d 1 -p ack -e 40 -c 2 -a 0 -i 62 -k RTR
h -t 0.769641031 -s 2 -d 1 -p ack -e 40 -c 2 -a 0 -i 62 -k RTR
r -t 0.771508265 -s 1 -d 1 -p ack -e 40 -c 2 -a 0 -i 59 -k AGT
+ -t 0.771508265 -s 1 -d -1 -p tcp -e 1040 -c 2 -a 0 -i 63 -k AGT 
- -t 0.771508265 -s 1 -d -1 -p tcp -e 1040 -c 2 -a 0 -i 63 -k AGT
h -t 0.771508265 -s 1 -d -1 -p tcp -e 1040 -c 2 -a 0 -i 63 -k AGT
+ -t 0.771508265 -s 1 -d 2 -p tcp -e 1040 -c 2 -a 0 -i 63 -k RTR 
- -t 0.771508265 -s 1 -d 2 -p tcp -e 1040 -c 2 -a 0 -i 63 -k RTR
h -t 0.771508265 -s 1 -d 2 -p tcp -e 1040 -c 2 -a 0 -i 63 -k RTR
r -t 0.773576575 -s 1 -d 1 -p ack -e 40 -c 2 -a 0 -i 61 -k AGT