M 0.50000 0 (224.32, 87.84, 0.00), (250.00, 250.00), 50.00
M 0.50000 2 (325.82, 64.56, 0.00), (350.00, 250.00), 50.00
s 0.500000000 _1_ AGT  --- 0 tcp 40 [0 0 0 0] ------- [1:0 2:0 32 0] [0 0] 0 0
r 0.500000000 _1_ RTR  --- 0 tcp 40 [0 0 0 0] ------- [1:0 2:0 32 0] [0 0] 0 0
s 0.500000000 _1_ RTR  --- 0 AODV 48 [0 0 0 0] ------- [1:255 -1:255 30 0] [0x2 1 1 [2 0] [1 4]] (REQUEST)
r 0.500989070 _0_ RTR  --- 0 AODV 48 [0 ffffffff 1 800] ------- [1:255 -1:255 30 0] [0x2 1 1 [2 0] [1 4]] (REQUEST)
r 0.500989123 _3_ RTR  --- 0 AODV 48 [0 ffffffff 1 800] ------- [1:255 -1:255 30 0] [0x2 1 1 [2 0] [1 4]] (REQUEST)
r 0.500989126 _2_ RTR  --- 0 AODV 48 [0 ffffffff 1 800] ------- [1:255 -1:255 30 0] [0x2 1 1 [2 0] [1 4]] (REQUEST)
s 0.500989126 _2_ RTR  --- 0 AODV 44 [0 0 0 0] ------- [2:255 1:255 30 1] [0x4 1 [2 4] 10.000000] (REPLY)
s 0.501870297 _0_ RTR  --- 0 AODV 48 [0 ffffffff 1 800] ------- [0:255 -1:255 29 0] [0x2 2 1 [2 0] [1 4]] (REQUEST)
r 0.503018644 _2_ RTR  --- 0 AODV 48 [0 ffffffff 0 800] ------- [0:255 -1:255 29 0] [0x2 2 1 [2 0] [1 4]] (REQUEST)
r 0.503018659 _3_ RTR  --- 0 AODV 48 [0 ffffffff 0 800] ------- [0:255 -1:255 29 0] [0x2 2 1 [2 0] [1 4]] (REQUEST)
r 0.503019367 _1_ RTR  --- 0 AODV 48 [0 ffffffff 0 800] ------- [0:255 -1:255 29 0] [0x2 2 1 [2 0] [1 4]] (REQUEST)
s 0.505400857 _3_ RTR  --- 0 AODV 48 [0 ffffffff 1 800] ------- [3:255 -1:255 29 0] [0x2 2 1 [2 0] [1 4]] (REQUEST)
r 0.506836121 _1_ RTR  --- 0 AODV 44 [13a 1 2 800] ------- [2:255 1:255 30 1] [0x4 1 [2 4] 10.000000] (REPLY)
s 0.506836121 _1_ RTR  --- 0 tcp 40 [0 0 0 0] ------- [1:0 2:0 30 2] [0 0] 0 0
r 0.508703496 _2_ AGT  --- 0 tcp 40 [13a 2 1 800] ------- [1:0 2:0 30 2] [0 0] 1 0
s 0.508703496 _2_ AGT  --- 1 ack 40 [0 0 0 0] ------- [2:0 1:0 32 0] [0 0] 0 0
r 0.508703496 _2_ RTR  --- 1 ack 40 [0 0 0 0] ------- [2:0 1:0 32 0] [0 0] 0 0
s 0.508703496 _2_ RTR  --- 1 ack 40 [0 0 0 0] ------- [2:0 1:0 30 1] [0 0] 0 0
r 0.510116567 _0_ RTR  --- 0 AODV 48 [0 ffffffff 3 800] ------- [3:255 -1:255 29 0] [0x2 2 1 [2 0] [1 4]] (REQUEST)
r 0.510116914 _2_ RTR  --- 0 AODV 48 [0 ffffffff 3 800] ------- [3:255 -1:255 29 0] [0x2 2 1 [2 0] [1 4]] (REQUEST)
r 0.510117328 _1_ RTR  --- 0 AODV 48 [0 ffffffff 3 800] ------- [3:255 -1:255 29 0] [0x2 2 1 [2 0] [1 4]] (REQUEST)
r 0.511950288 _1_ AGT  --- 1 ack 40 [13a 1 2 800] ------- [2:0 1:0 30 1] [0 0] 1 0
s 0.511950288 _1_ AGT  --- 2 tcp 1040 [0 0 0 0] ------- [1:0 2:0 32 0] [1 0] 0 0
r 0.511950288 _1_ RTR  --- 2 tcp 1040 [0 0 0 0] ------- [1:0 2:0 32 0] [1 0] 0 0
s 0.511950288 _1_ AGT  --- 3 tcp 1040 [0 0 0 0] ------- [1:0 2:0 32 0] [2 0] 0 0
r 0.511950288 _1_ RTR  --- 3 tcp 1040 [0 0 0 0] ------- [1:0 2:0 32 0] [2 0] 0 0
s 0.511950288 _1_ RTR  --- 2 tcp 1040 [0 0 0 0] ------- [1:0 2:0 30 2] [1 0] 0 0
s 0.511950288 _1_ RTR  --- 3 tcp 1040 [0 0 0 0] ------- [1:0 2:0 30 2] [2 0] 0 0
r 0.522017661 _2_ AGT  --- 2 tcp 1040 [13a 2 1 800] ------- [1:0 2:0 30 2] [1 0] 1 0
s 0.522017661 _2_ AGT  --- 4 ack 40 [0 0 0 0] ------- [2:0 1:0 32 0] [1 0] 0 0
r 0.522017661 _2_ RTR  --- 4 ack 40 [0 0 0 0] ------- [2:0 1:0 32 0] [1 0] 0 0
s 0.522017661 _2_ RTR  --- 4 ack 40 [0 0 0 0] ------- [2:0 1:0 30 1] [1 0] 0 0
r 0.532186152 _2_ AGT  --- 3 tcp 1040 [13a 2 1 800] ------- [1:0 2:0 30 2] [2 0] 1 0
s 0.532186152 _2_ AGT  --- 5 ack 40 [0 0 0 0] ------- [2:0 1:0 32 0] [2 0] 0 0
r 0.532186152 _2_ RTR  --- 5 ack 40 [0 0 0 0] ------- [2:0 1:0 32 0] [2 0] 0 0
s 0.532186152 _2_ RTR  --- 5 ack 40 [0 0 0 0] ------- [2:0 1:0 30 1] [2 0] 0 0
r 0.534153515 _1_ AGT  --- 4 ack 40 [13a 1 2 800] ------- [2:0 1:0 30 1] [1 0] 1 0
s 0.534153515 _1_ AGT  --- 6 tcp 1040 [0 0 0 0] ------- [1:0 2:0 32 0] [3 0] 0 0
r 0.534153515 _1_ RTR  --- 6 tcp 1040 [0 0 0 0] ------- [1:0 2:0 32 0] [3 0] 0 0
s 0.534153515 _1_ AGT  --- 7 tcp 1040 [0 0 0 0] ------- [1:0 2:0 32 0] [4 0] 0 0
r 0.534153515 _1_ RTR  --- 7 tcp 1040 [0 0 0 0] ------- [1:0 2:0 32 0] [4 0] 0 0
s 0.534153515 _1_ RTR  --- 6 tcp 1040 [0 0 0 0] ------- [1:0 2:0 30 2] [3 0] 0 0
s 0.534153515 _1_ RTR  --- 7 tcp 1040 [0 0 0 0] ------- [1:0 2:0 30 2] [4 0] 0 0
r 0.544180877 _2_ AGT  --- 6 tcp 1040 [13a 2 1 800] ------- [1:0 2:0 30 2] [3 0] 1 0
s 0.544180877 _2_ AGT  --- 8 ack 40 [0 0 0 0] ------- [2:0 1:0 32 0] [3 0] 0 0
r 0.544180877 _2_ RTR  --- 8 ack 40 [0 0 0 0] ------- [2:0 1:0 32 0] [3 0] 0 0
s 0.544180877 _2_ RTR  --- 8 ack 40 [0 0 0 0] ------- [2:0 1:0 30 1] [3 0] 0 0
r 0.546028234 _1_ AGT  --- 5 ack 40 [13a 1 2 800] ------- [2:0 1:0 30 1] [2 0] 1 0
s 0.546028234 _1_ AGT  --- 9 tcp 1040 [0 0 0 0] ------- [1:0 2:0 32 0] [5 0] 0 0
r 0.546028234 _1_ RTR  --- 9 tcp 1040 [0 0 0 0] ------- [1:0 2:0 32 0] [5 0] 0 0
s 0.546028234 _1_ AGT  --- 10 tcp 1040 [0 0 0 0] ------- [1:0 2:0 32 0] [6 0] 0 0
r 0.546028234 _1_ RTR  --- 10 tcp 1040 [0 0 0 0] ------- [1:0 2:0 32 0] [6 0] 0 0
s 0.546028234 _1_ RTR  --- 9 tcp 1040 [0 0 0 0] ------- [1:0 2:0 30 2] [5 0] 0 0
s 0.546028234 _1_ RTR  --- 10 tcp 1040 [0 0 0 0] ------- [1:0 2:0 30 2] [6 0] 0 0
r 0.547876709 _1_ AGT  --- 8 ack 40 [13a 1 2 800] ------- [2:0 1:0 30 1] [3 0] 1 0
s 0.547876709 _1_ AGT  --- 11 tcp 1040 [0 0 0 0] ------- [1:0 2:0 32 0] [7 0] 0 0
r 0.547876709 _1_ RTR  --- 11 tcp 1040 [0 0 0 0] ------- [1:0 2:0 32 0] [7 0] 0 0
s 0.547876709 _1_ AGT  --- 12 tcp 1040 [0 0 0 0] ------- [1:0 2:0 32 0] [8 0] 0 0
r 0.547876709 _1_ RTR  --- 12 tcp 1040 [0 0 0 0] ------- [1:0 2:0 32 0] [8 0] 0 0
s 0.547876709 _1_ RTR  --- 11 tcp 1040 [0 0 0 0] ------- [1:0 2:0 30 2] [7 0] 0 0
s 0.547876709 _1_ RTR  --- 12 tcp 1040 [0 0 0 0] ------- [1:0 2:0 30 2] [8 0] 0 0
r 0.557904065 _2_ AGT  --- 7 tcp 1040 [13a 2 1 800] ------- [1:0 2:0 30 2] [4 0] 1 0
s 0.557904065 _2_ AGT  --- 13 ack 40 [0 0 0 0] ------- [2:0 1:0 32 0] [4 0] 0 0
r 0.557904065 _2_ RTR  --- 13 ack 40 [0 0 0 0] ------- [2:0 1:0 32 0] [4 0] 0 0
s 0.557904065 _2_ RTR  --- 13 ack 40 [0 0 0 0] ------- [2:0 1:0 30 1] [4 0] 0 0
r 0.559791415 _1_ AGT  --- 13 ack 40 [13a 1 2 800] ------- [2:0 1:0 30 1] [4 0] 1 0
s 0.559791415 _1_ AGT  --- 14 tcp 1040 [0 0 0 0] ------- [1:0 2:0 32 0] [9 0] 0 0
r 0.559791415 _1_ RTR  --- 14 tcp 1040 [0 0 0 0] ------- [1:0 2:0 32 0] [9 0] 0 0
s 0.559791415 _1_ AGT  --- 15 tcp 1040 [0 0 0 0] ------- [1:0 2:0 32 0] [10 0] 0 0
r 0.559791415 _1_ RTR  --- 15 tcp 1040 [0 0 0 0] ------- [1:0 2:0 32 0] [10 0] 0 0
s 0.559791415 _1_ RTR  --- 14 tcp 1040 [0 0 0 0] ------- [1:0 2:0 30 2] [9 0] 0 0
s 0.559791415 _1_ RTR  --- 15 tcp 1040 [0 0 0 0] ------- [1:0 2:0 30 2] [10 0] 0 0
r 0.570018765 _2_ AGT  --- 9 tcp 1040 [13a 2 1 800] ------- [1:0 2:0 30 2] [5 0] 1 0
s 0.570018765 _2_ AGT  --- 16 ack 40 [0 0 0 0] ------- [2:0 1:0 32 0] [5 0] 0 0
r 0.570018765 _2_ RTR  --- 16 ack 40 [0 0 0 0] ------- [2:0 1:0 32 0] [5 0] 0 0
s 0.570018765 _2_ RTR  --- 16 ack 40 [0 0 0 0] ------- [2:0 1:0 30 1] [5 0] 0 0
r 0.580247224 _2_ AGT  --- 10 tcp 1040 [13a 2 1 800] ------- [1:0 2:0 30 2] [6 0] 1 0
s 0.580247224 _2_ AGT  --- 17 ack 40 [0 0 0 0] ------- [2:0 1:0 32 0] [6 0] 0 0
r 0.580247224 _2_ RTR  --- 17 ack 40 [0 0 0 0] ------- [2:0 1:0 32 0] [6 0] 0 0
s 0.580247224 _2_ RTR  --- 17 ack 40 [0 0 0 0] ------- [2:0 1:0 30 1] [6 0] 0 0
r 0.582254564 _1_ AGT  --- 16 ack 40 [13a 1 2 800] ------- [2:0 1:0 30 1] [5 0] 1 0
s 0.582254564 _1_ AGT  --- 18 tcp 1040 [0 0 0 0] ------- [1:0 2:0 32 0] [11 0] 0 0
r 0.582254564 _1_ RTR  --- 18 tcp 1040 [0 0 0 0] ------- [1:0 2:0 32 0] [11 0] 0 0
s 0.582254564 _1_ AGT  --- 19 tcp 1040 [0 0 0 0] ------- [1:0 2:0 32 0] [12 0] 0 0
r 0.582254564 _1_ RTR  --- 19 tcp 1040 [0 0 0 0] ------- [1:0 2:0 32 0] [12 0] 0 0
s 0.582254564 _1_ RTR  --- 18 tcp 1040 [0 0 0 0] ------- [1:0 2:0 30 2] [11 0] 0 0
s 0.582254564 _1_ RTR  --- 19 tcp 1040 [0 0 0 0] ------- [1:0 2:0 30 2] [12 0] 0 0
r 0.584443015 _1_ AGT  --- 17 ack 40 [13a 1 2 800] ------- [2:0 1:0 30 1] [6 0] 1 0
s 0.584443015 _1_ AGT  --- 20 tcp 1040 [0 0 0 0] ------- [1:0 2:0 32 0] [13 0] 0 0
r 0.584443015 _1_ RTR  --- 20 tcp 1040 [0 0 0 0] ------- [1:0 2:0 32 0] [13 0] 0 0
s 0.584443015 _1_ AGT  --- 21 tcp 1040 [0 0 0 0] ------- [1:0 2:0 32 0] [14 0] 0 0
r 0.584443015 _1_ RTR  --- 21 tcp 1040 [0 0 0 0] ------- [1:0 2:0 32 0] [14 0] 0 0
s 0.584443015 _1_ RTR  --- 20 tcp 1040 [0 0 0 0] ------- [1:0 2:0 30 2] [13 0] 0 0
s 0.584443015 _1_ RTR  --- 21 tcp 1040 [0 0 0 0] ------- [1:0 2:0 30 2] [14 0] 0 0
r 0.594290353 _2_ AGT  --- 11 tcp 1040 [13a 2 1 800] ------- [1:0 2:0 30 2] [7 0] 1 0
s 0.594290353 _2_ AGT  --- 22 ack 40 [0 0 0 0] ------- [2:0 1:0 32 0] [7 0] 0 0
r 0.594290353 _2_ RTR  --- 22 ack 40 [0 0 0 0] ------- [2:0 1:0 32 0] [7 0] 0 0
s 0.594290353 _2_ RTR  --- 22 ack 40 [0 0 0 0] ------- [2:0 1:0 30 1] [7 0] 0 0
r 0.596157686 _1_ AGT  --- 22 ack 40 [13a 1 2 800] ------- [2:0 1:0 30 1] [7 0] 1 0
s 0.596157686 _1_ AGT  --- 23 tcp 1040 [0 0 0 0] ------- [1:0 2:0 32 0] [15 0] 0 0
r 0.596157686 _1_ RTR  --- 23 tcp 1040 [0 0 0 0] ------- [1:0 2:0 32 0] [15 0] 0 0
s 0.596157686 _1_ AGT  --- 24 tcp 1040 [0 0 0 0] ------- [1:0 2:0 32 0] [16 0] 0 0
r 0.596157686 _1_ RTR  --- 24 tcp 1040 [0 0 0 0] ------- [1:0 2:0 32 0] [16 0] 0 0
s 0.596157686 _1_ RTR  --- 23 tcp 1040 [0 0 0 0] ------- [1:0 2:0 30 2] [15 0] 0 0
s 0.596157686 _1_ RTR  --- 24 tcp 1040 [0 0 0 0] ------- [1:0 2:0 30 2] [16 0] 0 0
r 0.606265017 _2_ AGT  --- 12 tcp 1040 [13a 2 1 800] ------- [1:0 2:0 30 2] [8 0] 1 0
s 0.606265017 _2_ AGT  --- 25 ack 40 [0 0 0 0] ------- [2:0 1:0 32 0] [8 0] 0 0
r 0.606265017 _2_ RTR  --- 25 ack 40 [0 0 0 0] ------- [2:0 1:0 32 0] [8 0] 0 0
s 0.606265017 _2_ RTR  --- 25 ack 40 [0 0 0 0] ------- [2:0 1:0 30 1] [8 0] 0 0
r 0.608192344 _1_ AGT  --- 25 ack 40 [13a 1 2 800] ------- [2:0 1:0 30 1] [8 0] 1 0
s 0.608192344 _1_ AGT  --- 26 tcp 1040 [0 0 0 0] ------- [1:0 2:0 32 0] [17 0] 0 0
r 0.608192344 _1_ RTR  --- 26 tcp 1040 [0 0 0 0] ------- [1:0 2:0 32 0] [17 0] 0 0
s 0.608192344 _1_ AGT  --- 27 tcp 1040 [0 0 0 0] ------- [1:0 2:0 32 0] [18 0] 0 0
r 0.608192344 _1_ RTR  --- 27 tcp 1040 [0 0 0 0] ------- [1:0 2:0 32 0] [18 0] 0 0
s 0.608192344 _1_ RTR  --- 26 tcp 1040 [0 0 0 0] ------- [1:0 2:0 30 2] [17 0] 0 0
s 0.608192344 _1_ RTR  --- 27 tcp 1040 [0 0 0 0] ------- [1:0 2:0 30 2] [18 0] 0 0
r 0.618079670 _2_ AGT  --- 14 tcp 1040 [13a 2 1 800] ------- [1:0 2:0 30 2] [9 0] 1 0
s 0.618079670 _2_ AGT  --- 28 ack 40 [0 0 0 0] ------- [2:0 1:0 32 0] [9 0] 0 0
r 0.618079670 _2_ RTR  --- 28 ack 40 [0 0 0 0] ------- [2:0 1:0 32 0] [9 0] 0 0
s 0.618079670 _2_ RTR  --- 28 ack 40 [0 0 0 0] ------- [2:0 1:0 30 1] [9 0] 0 0
r 0.619946991 _1_ AGT  --- 28 ack 40 [13a 1 2 800] ------- [2:0 1:0 30 1] [9 0] 1 0
s 0.619946991 _1_ AGT  --- 29 tcp 1040 [0 0 0 0] ------- [1:0 2:0 32 0] [19 0] 0 0
r 0.619946991 _1_ RTR  --- 29 tcp 1040 [0 0 0 0] ------- [1:0 2:0 32 0] [19 0] 0 0
s 0.619946991 _1_ AGT  --- 30 tcp 1040 [0 0 0 0] ------- [1:0 2:0 32 0] [20 0] 0 0
r 0.619946991 _1_ RTR  --- 30 tcp 1040 [0 0 0 0] ------- [1:0 2:0 32 0] [20 0] 0 0
s 0.619946991 _1_ RTR  --- 29 tcp 1040 [0 0 0 0] ------- [1:0 2:0 30 2] [19 0] 0 0
s 0.619946991 _1_ RTR  --- 30 tcp 1040 [0 0 0 0] ------- [1:0 2:0 30 2] [20 0] 0 0
r 0.630034312 _2_ AGT  --- 15 tcp 1040 [13a 2 1 800] ------- [1:0 2:0 30 2] [10 0] 1 0
s 0.630034312 _2_ AGT  --- 31 ack 40 [0 0 0 0] ------- [2:0 1:0 32 0] [10 0] 0 0
r 0.630034312 _2_ RTR  --- 31 ack 40 [0 0 0 0] ------- [2:0 1:0 32 0] [10 0] 0 0
s 0.630034312 _2_ RTR  --- 31 ack 40 [0 0 0 0] ------- [2:0 1:0 30 1] [10 0] 0 0
r 0.631961627 _1_ AGT  --- 31 ack 40 [13a 1 2 800] ------- [2:0 1:0 30 1] [10 0] 1 0
s 0.631961627 _1_ AGT  --- 32 tcp 1040 [0 0 0 0] ------- [1:0 2:0 32 0] [21 0] 0 0
r 0.631961627 _1_ RTR  --- 32 tcp 1040 [0 0 0 0] ------- [1:0 2:0 32 0] [21 0] 0 0
s 0.631961627 _1_ AGT  --- 33 tcp 1040 [0 0 0 0] ------- [1:0 2:0 32 0] [22 0] 0 0
r 0.631961627 _1_ RTR  --- 33 tcp 1040 [0 0 0 0] ------- [1:0 2:0 32 0] [22 0] 0 0
s 0.631961627 _1_ RTR  --- 32 tcp 1040 [0 0 0 0] ------- [1:0 2:0 30 2] [21 0] 0 0
s 0.631961627 _1_ RTR  --- 33 tcp 1040 [0 0 0 0] ------- [1:0 2:0 30 2] [22 0] 0 0
r 0.642228941 _2_ AGT  --- 18 tcp 1040 [13a 2 1 800] ------- [1:0 2:0 30 2] [11 0] 1 0
s 0.642228941 _2_ AGT  --- 34 ack 40 [0 0 0 0] ------- [2:0 1:0 32 0] [11 0] 0 0
r 0.642228941 _2_ RTR  --- 34 ack 40 [0 0 0 0] ------- [2:0 1:0 32 0] [11 0] 0 0
s 0.642228941 _2_ RTR  --- 34 ack 40 [0 0 0 0] ------- [2:0 1:0 30 1] [11 0] 0 0
r 0.644256251 _1_ AGT  --- 34 ack 40 [13a 1 2 800] ------- [2:0 1:0 30 1] [11 0] 1 0
s 0.644256251 _1_ AGT  --- 35 tcp 1040 [0 0 0 0] ------- [1:0 2:0 32 0] [23 0] 0 0
r 0.644256251 _1_ RTR  --- 35 tcp 1040 [0 0 0 0] ------- [1:0 2:0 32 0] [23 0] 0 0
s 0.644256251 _1_ AGT  --- 36 tcp 1040 [0 0 0 0] ------- [1:0 2:0 32 0] [24 0] 0 0
r 0.644256251 _1_ RTR  --- 36 tcp 1040 [0 0 0 0] ------- [1:0 2:0 32 0] [24 0] 0 0
s 0.644256251 _1_ RTR  --- 35 tcp 1040 [0 0 0 0] ------- [1:0 2:0 30 2] [23 0] 0 0
s 0.644256251 _1_ RTR  --- 36 tcp 1040 [0 0 0 0] ------- [1:0 2:0 30 2] [24 0] 0 0
r 0.654483559 _2_ AGT  --- 19 tcp 1040 [13a 2 1 800] ------- [1:0 2:0 30 2] [12 0] 1 0
s 0.654483559 _2_ AGT  --- 37 ack 40 [0 0 0 0] ------- [2:0 1:0 32 0] [12 0] 0 0
r 0.654483559 _2_ RTR  --- 37 ack 40 [0 0 0 0] ------- [2:0 1:0 32 0] [12 0] 0 0
s 0.654483559 _2_ RTR  --- 37 ack 40 [0 0 0 0] ------- [2:0 1:0 30 1] [12 0] 0 0
r 0.656430862 _1_ AGT  --- 37 ack 40 [13a 1 2 800] ------- [2:0 1:0 30 1] [12 0] 1 0
s 0.656430862 _1_ AGT  --- 38 tcp 1040 [0 0 0 0] ------- [1:0 2:0 32 0] [25 0] 0 0
r 0.656430862 _1_ RTR  --- 38 tcp 1040 [0 0 0 0] ------- [1:0 2:0 32 0] [25 0] 0 0
s 0.656430862 _1_ AGT  --- 39 tcp 1040 [0 0 0 0] ------- [1:0 2:0 32 0] [26 0] 0 0
r 0.656430862 _1_ RTR  --- 39 tcp 1040 [0 0 0 0] ------- [1:0 2:0 32 0] [26 0] 0 0
s 0.656430862 _1_ RTR  --- 38 tcp 1040 [0 0 0 0] ------- [1:0 2:0 30 2] [25 0] 0 0
s 0.656430862 _1_ RTR  --- 39 tcp 1040 [0 0 0 0] ------- [1:0 2:0 30 2] [26 0] 0 0
r 0.666498165 _2_ AGT  --- 20 tcp 1040 [13a 2 1 800] ------- [1:0 2:0 30 2] [13 0] 1 0
s 0.666498165 _2_ AGT  --- 40 ack 40 [0 0 0 0] ------- [2:0 1:0 32 0] [13 0] 0 0
r 0.666498165 _2_ RTR  --- 40 ack 40 [0 0 0 0] ------- [2:0 1:0 32 0] [13 0] 0 0
s 0.666498165 _2_ RTR  --- 40 ack 40 [0 0 0 0] ------- [2:0 1:0 30 1] [13 0] 0 0
r 0.668605462 _1_ AGT  --- 40 ack 40 [13a 1 2 800] ------- [2:0 1:0 30 1] [13 0] 1 0
s 0.668605462 _1_ AGT  --- 41 tcp 1040 [0 0 0 0] ------- [1:0 2:0 32 0] [27 0] 0 0
r 0.668605462 _1_ RTR  --- 41 tcp 1040 [0 0 0 0] ------- [1:0 2:0 32 0] [27 0] 0 0
s 0.668605462 _1_ AGT  --- 42 tcp 1040 [0 0 0 0] ------- [1:0 2:0 32 0] [28 0] 0 0
r 0.668605462 _1_ RTR  --- 42 tcp 1040 [0 0 0 0] ------- [1:0 2:0 32 0] [28 0] 0 0
s 0.668605462 _1_ RTR  --- 41 tcp 1040 [0 0 0 0] ------- [1:0 2:0 30 2] [27 0] 0 0
s 0.668605462 _1_ RTR  --- 42 tcp 1040 [0 0 0 0] ------- [1:0 2:0 30 2] [28 0] 0 0
r 0.678452759 _2_ AGT  --- 21 tcp 1040 [13a 2 1 800] ------- [1:0 2:0 30 2] [14 0] 1 0
s 0.678452759 _2_ AGT  --- 43 ack 40 [0 0 0 0] ------- [2:0 1:0 32 0] [14 0] 0 0
r 0.678452759 _2_ RTR  --- 43 ack 40 [0 0 0 0] ------- [2:0 1:0 32 0] [14 0] 0 0
s 0.678452759 _2_ RTR  --- 43 ack 40 [0 0 0 0] ------- [2:0 1:0 30 1] [14 0] 0 0
r 0.680460050 _1_ AGT  --- 43 ack 40 [13a 1 2 800] ------- [2:0 1:0 30 1] [14 0] 1 0
s 0.680460050 _1_ AGT  --- 44 tcp 1040 [0 0 0 0] ------- [1:0 2:0 32 0] [29 0] 0 0
r 0.680460050 _1_ RTR  --- 44 tcp 1040 [0 0 0 0] ------- [1:0 2:0 32 0] [29 0] 0 0
s 0.680460050 _1_ AGT  --- 45 tcp 1040 [0 0 0 0] ------- [1:0 2:0 32 0] [30 0] 0 0
r 0.680460050 _1_ RTR  --- 45 tcp 1040 [0 0 0 0] ------- [1:0 2:0 32 0] [30 0] 0 0
s 0.680460050 _1_ RTR  --- 44 tcp 1040 [0 0 0 0] ------- [1:0 2:0 30 2] [29 0] 0 0
s 0.680460050 _1_ RTR  --- 45 tcp 1040 [0 0 0 0] ------- [1:0 2:0 30 2] [30 0] 0 0
r 0.690407341 _2_ AGT  --- 23 tcp 1040 [13a 2 1 800] ------- [1:0 2:0 30 2] [15 0] 1 0
s 0.690407341 _2_ AGT  --- 46 ack 40 [0 0 0 0] ------- [2:0 1:0 32 0] [15 0] 0 0
r 0.690407341 _2_ RTR  --- 46 ack 40 [0 0 0 0] ------- [2:0 1:0 32 0] [15 0] 0 0
s 0.690407341 _2_ RTR  --- 46 ack 40 [0 0 0 0] ------- [2:0 1:0 30 1] [15 0] 0 0
M 0.70000 1 (295.05, 401.07, 0.00), (45.00, 285.00), 60.00
M 0.70000 3 (118.89, 113.98, 0.00), (145.00, 385.00), 60.00
r 0.700235723 _2_ AGT  --- 24 tcp 1040 [13a 2 1 800] ------- [1:0 2:0 30 2] [16 0] 1 0
s 0.700235723 _2_ AGT  --- 47 ack 40 [0 0 0 0] ------- [2:0 1:0 32 0] [16 0] 0 0
r 0.700235723 _2_ RTR  --- 47 ack 40 [0 0 0 0] ------- [2:0 1:0 32 0] [16 0] 0 0
s 0.700235723 _2_ RTR  --- 47 ack 40 [0 0 0 0] ------- [2:0 1:0 30 1] [16 0] 0 0
r 0.710284097 _2_ AGT  --- 26 tcp 1040 [13a 2 1 800] ------- [1:0 2:0 30 2] [17 0] 1 0
s 0.710284097 _2_ AGT  --- 48 ack 40 [0 0 0 0] ------- [2:0 1:0 32 0] [17 0] 0 0
r 0.710284097 _2_ RTR  --- 48 ack 40 [0 0 0 0] ------- [2:0 1:0 32 0] [17 0] 0 0
s 0.710284097 _2_ RTR  --- 48 ack 40 [0 0 0 0] ------- [2:0 1:0 30 1] [17 0] 0 0
r 0.712271371 _1_ AGT  --- 46 ack 40 [13a 1 2 800] ------- [2:0 1:0 30 1] [15 0] 1 0
s 0.712271371 _1_ AGT  --- 49 tcp 1040 [0 0 0 0] ------- [1:0 2:0 32 0] [31 0] 0 0
r 0.712271371 _1_ RTR  --- 49 tcp 1040 [0 0 0 0] ------- [1:0 2:0 32 0] [31 0] 0 0
s 0.712271371 _1_ AGT  --- 50 tcp 1040 [0 0 0 0] ------- [1:0 2:0 32 0] [32 0] 0 0
r 0.712271371 _1_ RTR  --- 50 tcp 1040 [0 0 0 0] ------- [1:0 2:0 32 0] [32 0] 0 0
s 0.712271371 _1_ RTR  --- 49 tcp 1040 [0 0 0 0] ------- [1:0 2:0 30 2] [31 0] 0 0
s 0.712271371 _1_ RTR  --- 50 tcp 1040 [0 0 0 0] ------- [1:0 2:0 30 2] [32 0] 0 0
r 0.714259735 _1_ AGT  --- 47 ack 40 [13a 1 2 800] ------- [2:0 1:0 30 1] [16 0] 1 0
s 0.714259735 _1_ AGT  --- 51 tcp 1040 [0 0 0 0] ------- [1:0 2:0 32 0] [33 0] 0 0
r 0.714259735 _1_ RTR  --- 51 tcp 1040 [0 0 0 0] ------- [1:0 2:0 32 0] [33 0] 0 0
s 0.714259735 _1_ AGT  --- 52 tcp 1040 [0 0 0 0] ------- [1:0 2:0 32 0] [34 0] 0 0
r 0.714259735 _1_ RTR  --- 52 tcp 1040 [0 0 0 0] ------- [1:0 2:0 32 0] [34 0] 0 0
s 0.714259735 _1_ RTR  --- 51 tcp 1040 [0 0 0 0] ------- [1:0 2:0 30 2] [33 0] 0 0
s 0.714259735 _1_ RTR  --- 52 tcp 1040 [0 0 0 0] ------- [1:0 2:0 30 2] [34 0] 0 0
r 0.724107006 _2_ AGT  --- 27 tcp 1040 [13a 2 1 800] ------- [1:0 2:0 30 2] [18 0] 1 0
s 0.724107006 _2_ AGT  --- 53 ack 40 [0 0 0 0] ------- [2:0 1:0 32 0] [18 0] 0 0
r 0.724107006 _2_ RTR  --- 53 ack 40 [0 0 0 0] ------- [2:0 1:0 32 0] [18 0] 0 0
s 0.724107006 _2_ RTR  --- 53 ack 40 [0 0 0 0] ------- [2:0 1:0 30 1] [18 0] 0 0
r 0.734015359 _2_ AGT  --- 29 tcp 1040 [13a 2 1 800] ------- [1:0 2:0 30 2] [19 0] 1 0
s 0.734015359 _2_ AGT  --- 54 ack 40 [0 0 0 0] ------- [2:0 1:0 32 0] [19 0] 0 0
r 0.734015359 _2_ RTR  --- 54 ack 40 [0 0 0 0] ------- [2:0 1:0 32 0] [19 0] 0 0
s 0.734015359 _2_ RTR  --- 54 ack 40 [0 0 0 0] ------- [2:0 1:0 30 1] [19 0] 0 0
r 0.735982617 _1_ AGT  --- 48 ack 40 [13a 1 2 800] ------- [2:0 1:0 30 1] [17 0] 1 0
s 0.735982617 _1_ AGT  --- 55 tcp 1040 [0 0 0 0] ------- [1:0 2:0 32 0] [35 0] 0 0
r 0.735982617 _1_ RTR  --- 55 tcp 1040 [0 0 0 0] ------- [1:0 2:0 32 0] [35 0] 0 0
s 0.735982617 _1_ AGT  --- 56 tcp 1040 [0 0 0 0] ------- [1:0 2:0 32 0] [36 0] 0 0
r 0.735982617 _1_ RTR  --- 56 tcp 1040 [0 0 0 0] ------- [1:0 2:0 32 0] [36 0] 0 0
s 0.735982617 _1_ RTR  --- 55 tcp 1040 [0 0 0 0] ------- [1:0 2:0 30 2] [35 0] 0 0
s 0.735982617 _1_ RTR  --- 56 tcp 1040 [0 0 0 0] ------- [1:0 2:0 30 2] [36 0] 0 0
r 0.737810959 _1_ AGT  --- 53 ack 40 [13a 1 2 800] ------- [2:0 1:0 30 1] [18 0] 1 0
s 0.737810959 _1_ AGT  --- 57 tcp 1040 [0 0 0 0] ------- [1:0 2:0 32 0] [37 0] 0 0
r 0.737810959 _1_ RTR  --- 57 tcp 1040 [0 0 0 0] ------- [1:0 2:0 32 0] [37 0] 0 0
s 0.737810959 _1_ AGT  --- 58 tcp 1040 [0 0 0 0] ------- [1:0 2:0 32 0] [38 0] 0 0
r 0.737810959 _1_ RTR  --- 58 tcp 1040 [0 0 0 0] ------- [1:0 2:0 32 0] [38 0] 0 0
s 0.737810959 _1_ RTR  --- 57 tcp 1040 [0 0 0 0] ------- [1:0 2:0 30 2] [37 0] 0 0
s 0.737810959 _1_ RTR  --- 58 tcp 1040 [0 0 0 0] ------- [1:0 2:0 30 2] [38 0] 0 0
r 0.747818215 _2_ AGT  --- 30 tcp 1040 [13a 2 1 800] ------- [1:0 2:0 30 2] [20 0] 1 0
s 0.747818215 _2_ AGT  --- 59 ack 40 [0 0 0 0] ------- [2:0 1:0 32 0] [20 0] 0 0
r 0.747818215 _2_ RTR  --- 59 ack 40 [0 0 0 0] ------- [2:0 1:0 32 0] [20 0] 0 0
s 0.747818215 _2_ RTR  --- 59 ack 40 [0 0 0 0] ------- [2:0 1:0 30 1] [20 0] 0 0
r 0.749725463 _1_ AGT  --- 54 ack 40 [13a 1 2 800] ------- [2:0 1:0 30 1] [19 0] 1 0
s 0.749725463 _1_ AGT  --- 60 tcp 1040 [0 0 0 0] ------- [1:0 2:0 32 0] [39 0] 0 0
r 0.749725463 _1_ RTR  --- 60 tcp 1040 [0 0 0 0] ------- [1:0 2:0 32 0] [39 0] 0 0
s 0.749725463 _1_ RTR  --- 60 tcp 1040 [0 0 0 0] ------- [1:0 2:0 30 2] [39 0] 0 0
r 0.759792710 _2_ AGT  --- 32 tcp 1040 [13a 2 1 800] ------- [1:0 2:0 30 2] [21 0] 1 0
s 0.759792710 _2_ AGT  --- 61 ack 40 [0 0 0 0] ------- [2:0 1:0 32 0] [21 0] 0 0
r 0.759792710 _2_ RTR  --- 61 ack 40 [0 0 0 0] ------- [2:0 1:0 32 0] [21 0] 0 0
s 0.759792710 _2_ RTR  --- 61 ack 40 [0 0 0 0] ------- [2:0 1:0 30 1] [21 0] 0 0
r 0.769641031 _2_ AGT  --- 33 tcp 1040 [13a 2 1 800] ------- [1:0 2:0 30 2] [22 0] 1 0
s 0.769641031 _2_ AGT  --- 62 ack 40 [0 0 0 0] ------- [2:0 1:0 32 0] [22 0] 0 0
r 0.769641031 _2_ RTR  --- 62 ack 40 [0 0 0 0] ------- [2:0 1:0 32 0] [22 0] 0 0
s 0.769641031 _2_ RTR  --- 62 ack 40 [0 0 0 0] ------- [2:0 1:0 30 1] [22 0] 0 0
r 0.771508265 _1_ AGT  --- 59 ack 40 [13a 1 2 800] ------- [2:0 1:0 30 1] [20 0] 1 0
s 0.771508265 _1_ AGT  --- 63 tcp 1040 [0 0 0 0] ------- [1:0 2:0 32 0] [40 0] 0 0
r 0.771508265 _1_ RTR  --- 63 tcp 1040 [0 0 0 0] ------- [1:0 2:0 32 0] [40 0] 0 0
s 0.771508265 _1_ RTR  --- 63 tcp 1040 [0 0 0 0] ------- [1:0 2:0 30 2] [40 0] 0 0
r 0.773576575 _1_ AGT  --- 61 ack 40 [13a 1 2 800] ------- [2:0 1:0 30 1] [21 0] 1 0
s 0.773576575 _1_ AGT  --- 64 tcp 1040 [0 0 0 0] ------- [1:0 2:0 32 0] [41 0] 0 0
r 0.773576575 _1_ RTR  --- 64 tcp 1040 [0 0 0 0] ------- [1:0 2:0 32 0] [41 0] 0 0
s 0.773576575 _1_ RTR  --- 64 tcp 1040 [0 0 0 0] ------- [1:0 2:0 30 2] [41 0] 0 0
r 0.775524883 _1_ AGT  --- 62 ack 40 [13a 1 2 800] ------- [2:0 1:0 30 1] [22 0] 1 0
s 0.775524883 _1_ AGT  --- 65 tcp 1040 [0 0 0 0] ------- [1:0 2:0 32 0] [42 0] 0 0
r 0.775524883 _1_ RTR  --- 65 tcp 1040 [0 0 0 0] ------- [1:0 2:0 32 0] [42 0] 0 0
s 0.775524883 _1_ RTR  --- 65 tcp 1040 [0 0 0 0] ------- [1:0 2:0 30 2] [42 0] 0 0
r 0.785452113 _2_ AGT  --- 35 tcp 1040 [13a 2 1 800] ------- [1:0 2:0 30 2] [23 0] 1 0
s 0.785452113 _2_ AGT  --- 66 ack 40 [0 0 0 0] ------- [2:0 1:0 32 0] [23 0] 0 0
r 0.785452113 _2_ RTR  --- 66 ack 40 [0 0 0 0] ------- [2:0 1:0 32 0] [23 0] 0 0
s 0.785452113 _2_ RTR  --- 66 ack 40 [0 0 0 0] ------- [2:0 1:0 30 1] [23 0] 0 0
r 0.795320410 _2_ AGT  --- 36 tcp 1040 [13a 2 1 800] ------- [1:0 2:0 30 2] [24 0] 1 0
s 0.795320410 _2_ AGT  --- 67 ack 40 [0 0 0 0] ------- [2:0 1:0 32 0] [24 0] 0 0
r 0.795320410 _2_ RTR  --- 67 ack 40 [0 0 0 0] ------- [2:0 1:0 32 0] [24 0] 0 0
s 0.795320410 _2_ RTR  --- 67 ack 40 [0 0 0 0] ------- [2:0 1:0 30 1] [24 0] 0 0
r 0.797327627 _1_ AGT  --- 66 ack 40 [13a 1 2 800] ------- [2:0 1:0 30 1] [23 0] 1 0
s 0.797327627 _1_ AGT  --- 68 tcp 1040 [0 0 0 0] ------- [1:0 2:0 32 0] [43 0] 0 0
r 0.797327627 _1_ RTR  --- 68 tcp 1040 [0 0 0 0] ------- [1:0 2:0 32 0] [43 0] 0 0
s 0.797327627 _1_ RTR  --- 68 tcp 1040 [0 0 0 0] ------- [1:0 2:0 30 2] [43 0] 0 0
r 0.799275914 _1_ AGT  --- 67 ack 40 [13a 1 2 800] ------- [2:0 1:0 30 1] [24 0] 1 0
s 0.799275914 _1_ AGT  --- 69 tcp 1040 [0 0 0 0] ------- [1:0 2:0 32 0] [44 0] 0 0
r 0.799275914 _1_ RTR  --- 69 tcp 1040 [0 0 0 0] ------- [1:0 2:0 32 0] [44 0] 0 0
s 0.799275914 _1_ RTR  --- 69 tcp 1040 [0 0 0 0] ------- [1:0 2:0 30 2] [44 0] 0 0
r 0.809283127 _2_ AGT  --- 38 tcp 1040 [13a 2 1 800] ------- [1:0 2:0 30 2] [25 0] 1 0
s 0.809283127 _2_ AGT  --- 70 ack 40 [0 0 0 0] ------- [2:0 1:0 32 0] [25 0] 0 0
r 0.809283127 _2_ RTR  --- 70 ack 40 [0 0 0 0] ------- [2:0 1:0 32 0] [25 0] 0 0
s 0.809283127 _2_ RTR  --- 70 ack 40 [0 0 0 0] ------- [2:0 1:0 30 1] [25 0] 0 0
r 0.811150335 _1_ AGT  --- 70 ack 40 [13a 1 2 800] ------- [2:0 1:0 30 1] [25 0] 1 0
s 0.811150335 _1_ AGT  --- 71 tcp 1040 [0 0 0 0] ------- [1:0 2:0 32 0] [45 0] 0 0
r 0.811150335 _1_ RTR  --- 71 tcp 1040 [0 0 0 0] ------- [1:0 2:0 32 0] [45 0] 0 0
s 0.811150335 _1_ RTR  --- 71 tcp 1040 [0 0 0 0] ------- [1:0 2:0 30 2] [45 0] 0 0
r 0.821057540 _2_ AGT  --- 39 tcp 1040 [13a 2 1 800] ------- [1:0 2:0 30 2] [26 0] 1 0
s 0.821057540 _2_ AGT  --- 72 ack 40 [0 0 0 0] ------- [2:0 1:0 32 0] [26 0] 0 0
r 0.821057540 _2_ RTR  --- 72 ack 40 [0 0 0 0] ------- [2:0 1:0 32 0] [26 0] 0 0
s 0.821057540 _2_ RTR  --- 72 ack 40 [0 0 0 0] ------- [2:0 1:0 30 1] [26 0] 0 0
r 0.822904740 _1_ AGT  --- 72 ack 40 [13a 1 2 800] ------- [2:0 1:0 30 1] [26 0] 1 0
s 0.822904740 _1_ AGT  --- 73 tcp 1040 [0 0 0 0] ------- [1:0 2:0 32 0] [46 0] 0 0
r 0.822904740 _1_ RTR  --- 73 tcp 1040 [0 0 0 0] ------- [1:0 2:0 32 0] [46 0] 0 0
s 0.822904740 _1_ RTR  --- 73 tcp 1040 [0 0 0 0] ------- [1:0 2:0 30 2] [46 0] 0 0
r 0.832991938 _2_ AGT  --- 41 tcp 1040 [13a 2 1 800] ------- [1:0 2:0 30 2] [27 0] 1 0
s 0.832991938 _2_ AGT  --- 74 ack 40 [0 0 0 0] ------- [2:0 1:0 32 0] [27 0] 0 0
r 0.832991938 _2_ RTR  --- 74 ack 40 [0 0 0 0] ------- [2:0 1:0 32 0] [27 0] 0 0
s 0.832991938 _2_ RTR  --- 74 ack 40 [0 0 0 0] ------- [2:0 1:0 30 1] [27 0] 0 0
r 0.834879129 _1_ AGT  --- 74 ack 40 [13a 1 2 800] ------- [2:0 1:0 30 1] [27 0] 1 0
s 0.834879129 _1_ AGT  --- 75 tcp 1040 [0 0 0 0] ------- [1:0 2:0 32 0] [47 0] 0 0
r 0.834879129 _1_ RTR  --- 75 tcp 1040 [0 0 0 0] ------- [1:0 2:0 32 0] [47 0] 0 0
s 0.834879129 _1_ RTR  --- 75 tcp 1040 [0 0 0 0] ------- [1:0 2:0 30 2] [47 0] 0 0
r 0.845006319 _2_ AGT  --- 42 tcp 1040 [13a 2 1 800] ------- [1:0 2:0 30 2] [28 0] 1 0
s 0.845006319 _2_ AGT  --- 76 ack 40 [0 0 0 0] ------- [2:0 1:0 32 0] [28 0] 0 0
r 0.845006319 _2_ RTR  --- 76 ack 40 [0 0 0 0] ------- [2:0 1:0 32 0] [28 0] 0 0
s 0.845006319 _2_ RTR  --- 76 ack 40 [0 0 0 0] ------- [2:0 1:0 30 1] [28 0] 0 0
r 0.854954563 _2_ AGT  --- 44 tcp 1040 [13a 2 1 800] ------- [1:0 2:0 30 2] [29 0] 1 0
s 0.854954563 _2_ AGT  --- 77 ack 40 [0 0 0 0] ------- [2:0 1:0 32 0] [29 0] 0 0
r 0.854954563 _2_ RTR  --- 77 ack 40 [0 0 0 0] ------- [2:0 1:0 32 0] [29 0] 0 0
s 0.854954563 _2_ RTR  --- 77 ack 40 [0 0 0 0] ------- [2:0 1:0 30 1] [29 0] 0 0
r 0.864842799 _2_ AGT  --- 45 tcp 1040 [13a 2 1 800] ------- [1:0 2:0 30 2] [30 0] 1 0
s 0.864842799 _2_ AGT  --- 78 ack 40 [0 0 0 0] ------- [2:0 1:0 32 0] [30 0] 0 0
r 0.864842799 _2_ RTR  --- 78 ack 40 [0 0 0 0] ------- [2:0 1:0 32 0] [30 0] 0 0
s 0.864842799 _2_ RTR  --- 78 ack 40 [0 0 0 0] ------- [2:0 1:0 30 1] [30 0] 0 0
r 0.866809969 _1_ AGT  --- 76 ack 40 [13a 1 2 800] ------- [2:0 1:0 30 1] [28 0] 1 0
s 0.866809969 _1_ AGT  --- 79 tcp 1040 [0 0 0 0] ------- [1:0 2:0 32 0] [48 0] 0 0
r 0.866809969 _1_ RTR  --- 79 tcp 1040 [0 0 0 0] ------- [1:0 2:0 32 0] [48 0] 0 0
s 0.866809969 _1_ RTR  --- 79 tcp 1040 [0 0 0 0] ------- [1:0 2:0 30 2] [48 0] 0 0
r 0.868758194 _1_ AGT  --- 77 ack 40 [13a 1 2 800] ------- [2:0 1:0 30 1] [29 0] 1 0
s 0.868758194 _1_ AGT  --- 80 tcp 1040 [0 0 0 0] ------- [1:0 2:0 32 0] [49 0] 0 0
r 0.868758194 _1_ RTR  --- 80 tcp 1040 [0 0 0 0] ------- [1:0 2:0 32 0] [49 0] 0 0
s 0.868758194 _1_ RTR  --- 80 tcp 1040 [0 0 0 0] ------- [1:0 2:0 30 2] [49 0] 0 0
r 0.878925362 _2_ AGT  --- 49 tcp 1040 [13a 2 1 800] ------- [1:0 2:0 30 2] [31 0] 1 0
s 0.878925362 _2_ AGT  --- 81 ack 40 [0 0 0 0] ------- [2:0 1:0 32 0] [31 0] 0 0
r 0.878925362 _2_ RTR  --- 81 ack 40 [0 0 0 0] ------- [2:0 1:0 32 0] [31 0] 0 0
s 0.878925362 _2_ RTR  --- 81 ack 40 [0 0 0 0] ------- [2:0 1:0 30 1] [31 0] 0 0
r 0.881032522 _1_ AGT  --- 78 ack 40 [13a 1 2 800] ------- [2:0 1:0 30 1] [30 0] 1 0
s 0.881032522 _1_ AGT  --- 82 tcp 1040 [0 0 0 0] ------- [1:0 2:0 32 0] [50 0] 0 0
r 0.881032522 _1_ RTR  --- 82 tcp 1040 [0 0 0 0] ------- [1:0 2:0 32 0] [50 0] 0 0
s 0.881032522 _1_ RTR  --- 82 tcp 1040 [0 0 0 0] ------- [1:0 2:0 30 2] [50 0] 0 0
r 0.891039682 _2_ AGT  --- 50 tcp 1040 [13a 2 1 800] ------- [1:0 2:0 30 2] [32 0] 1 0
s 0.891039682 _2_ AGT  --- 83 ack 40 [0 0 0 0] ------- [2:0 1:0 32 0] [32 0] 0 0
r 0.891039682 _2_ RTR  --- 83 ack 40 [0 0 0 0] ------- [2:0 1:0 32 0] [32 0] 0 0
s 0.891039682 _2_ RTR  --- 83 ack 40 [0 0 0 0] ------- [2:0 1:0 30 1] [32 0] 0 0
r 0.901167885 _2_ AGT  --- 51 tcp 1040 [13a 2 1 800] ------- [1:0 2:0 30 2] [33 0] 1 0
s 0.901167885 _2_ AGT  --- 84 ack 40 [0 0 0 0] ------- [2:0 1:0 32 0] [33 0] 0 0
r 0.901167885 _2_ RTR  --- 84 ack 40 [0 0 0 0] ------- [2:0 1:0 32 0] [33 0] 0 0
s 0.901167885 _2_ RTR  --- 84 ack 40 [0 0 0 0] ------- [2:0 1:0 30 1] [33 0] 0 0
r 0.903075032 _1_ AGT  --- 81 ack 40 [13a 1 2 800] ------- [2:0 1:0 30 1] [31 0] 1 0
s 0.903075032 _1_ AGT  --- 85 tcp 1040 [0 0 0 0] ------- [1:0 2:0 32 0] [51 0] 0 0
r 0.903075032 _1_ RTR  --- 85 tcp 1040 [0 0 0 0] ------- [1:0 2:0 32 0] [51 0] 0 0
s 0.903075032 _1_ RTR  --- 85 tcp 1040 [0 0 0 0] ------- [1:0 2:0 30 2] [51 0] 0 0
r 0.913142177 _2_ AGT  --- 52 tcp 1040 [13a 2 1 800] ------- [1:0 2:0 30 2] [34 0] 1 0
s 0.913142177 _2_ AGT  --- 86 ack 40 [0 0 0 0] ------- [2:0 1:0 32 0] [34 0] 0 0
r 0.913142177 _2_ RTR  --- 86 ack 40 [0 0 0 0] ------- [2:0 1:0 32 0] [34 0] 0 0
s 0.913142177 _2_ RTR  --- 86 ack 40 [0 0 0 0] ------- [2:0 1:0 30 1] [34 0] 0 0
r 0.915049315 _1_ AGT  --- 83 ack 40 [13a 1 2 800] ------- [2:0 1:0 30 1] [32 0] 1 0
s 0.915049315 _1_ AGT  --- 87 tcp 1040 [0 0 0 0] ------- [1:0 2:0 32 0] [52 0] 0 0
r 0.915049315 _1_ RTR  --- 87 tcp 1040 [0 0 0 0] ------- [1:0 2:0 32 0] [52 0] 0 0
s 0.915049315 _1_ RTR  --- 87 tcp 1040 [0 0 0 0] ------- [1:0 2:0 30 2] [52 0] 0 0
r 0.916917498 _1_ AGT  --- 84 ack 40 [13a 1 2 800] ------- [2:0 1:0 30 1] [33 0] 1 0
s 0.916917498 _1_ AGT  --- 88 tcp 1040 [0 0 0 0] ------- [1:0 2:0 32 0] [53 0] 0 0
r 0.916917498 _1_ RTR  --- 88 tcp 1040 [0 0 0 0] ------- [1:0 2:0 32 0] [53 0] 0 0
s 0.916917498 _1_ RTR  --- 88 tcp 1040 [0 0 0 0] ------- [1:0 2:0 30 2] [53 0] 0 0
r 0.926984634 _2_ AGT  --- 55 tcp 1040 [13a 2 1 800] ------- [1:0 2:0 30 2] [35 0] 1 0
s 0.926984634 _2_ AGT  --- 89 ack 40 [0 0 0 0] ------- [2:0 1:0 32 0] [35 0] 0 0
r 0.926984634 _2_ RTR  --- 89 ack 40 [0 0 0 0] ------- [2:0 1:0 32 0] [35 0] 0 0
s 0.926984634 _2_ RTR  --- 89 ack 40 [0 0 0 0] ------- [2:0 1:0 30 1] [35 0] 0 0