+ 0.1 0 1 tcp 40 ------- 1 0.0 9.0 0 0
- 0.1 0 1 tcp 40 ------- 1 0.0 9.0 0 0
+ 0.1 2 3 cbr 1000 ------- 2 2.0 9.1 0 1
- 0.1 2 3 cbr 1000 ------- 2 2.0 9.1 0 1
+ 0.11 2 3 cbr 1000 ------- 2 2.0 9.1 1 2
- 0.11 2 3 cbr 1000 ------- 2 2.0 9.1 1 2
r 0.11016 0 1 tcp 40 ------- 1 0.0 9.0 0 0
+ 0.11016 1 2 tcp 40 ------- 1 0.0 9.0 0 0
- 0.11016 1 2 tcp 40 ------- 1 0.0 9.0 0 0
r 0.114 2 3 cbr 1000 ------- 2 2.0 9.1 0 1
+ 0.114 3 4 cbr 1000 ------- 2 2.0 9.1 0 1
- 0.114 3 4 cbr 1000 ------- 2 2.0 9.1 0 1
+ 0.12 2 3 cbr 1000 ------- 2 2.0 9.1 2 3
- 0.12 2 3 cbr 1000 ------- 2 2.0 9.1 2 3
r 0.12032 1 2 tcp 40 ------- 1 0.0 9.0 0 0
+ 0.12032 2 3 tcp 40 ------- 1 0.0 9.0 0 0
r 0.124 2 3 cbr 1000 ------- 2 2.0 9.1 1 2
+ 0.124 3 4 cbr 1000 ------- 2 2.0 9.1 1 2
- 0.124 3 4 cbr 1000 ------- 2 2.0 9.1 1 2
- 0.124 2 3 tcp 40 ------- 1 0.0 9.0 0 0
r 0.128 3 4 cbr 1000 ------- 2 2.0 9.1 0 1
+ 0.128 4 5 cbr 1000 ------- 2 2.0 9.1 0 1
- 0.128 4 5 cbr 1000 ------- 2 2.0 9.1 0 1
+ 0.13 2 3 cbr 1000 ------- 2 2.0 9.1 3 4
- 0.13 2 3 cbr 1000 ------- 2 2.0 9.1 3 4
r 0.134 2 3 cbr 1000 ------- 2 2.0 9.1 2 3
+ 0.134 3 4 cbr 1000 ------- 2 2.0 9.1 2 3
- 0.134 3 4 cbr 1000 ------- 2 2.0 9.1 2 3
r 0.13416 2 3 tcp 40 ------- 1 0.0 9.0 0 0
+ 0.13416 3 4 tcp 40 ------- 1 0.0 9.0 0 0
r 0.138 3 4 cbr 1000 ------- 2 2.0 9.1 1 2
+ 0.138 4 5 cbr 1000 ------- 2 2.0 9.1 1 2
- 0.138 4 5 cbr 1000 ------- 2 2.0 9.1 1 2
- 0.138 3 4 tcp 40 ------- 1 0.0 9.0 0 0
+ 0.14 2 3 cbr 1000 ------- 2 2.0 9.1 4 5
- 0.14 2 3 cbr 1000 ------- 2 2.0 9.1 4 5
r 0.142 4 5 cbr 1000 ------- 2 2.0 9.1 0 1
+ 0.142 5 6 cbr 1000 ------- 2 2.0 9.1 0 1
- 0.142 5 6 cbr 1000 ------- 2 2.0 9.1 0 1
r 0.144 2 3 cbr 1000 ------- 2 2.0 9.1 3 4
+ 0.144 3 4 cbr 1000 ------- 2 2.0 9.1 3 4
- 0.144 3 4 cbr 1000 ------- 2 2.0 9.1 3 4
r 0.148 3 4 cbr 1000 ------- 2 2.0 9.1 2 3
+ 0.148 4 5 cbr 1000 ------- 2 2.0 9.1 2 3
- 0.148 4 5 cbr 1000 ------- 2 2.0 9.1 2 3
r 0.14816 3 4 tcp 40 ------- 1 0.0 9.0 0 0
+ 0.14816 4 5 tcp 40 ------- 1 0.0 9.0 0 0
+ 0.15 2 3 cbr 1000 ------- 2 2.0 9.1 5 6
- 0.15 2 3 cbr 1000 ------- 2 2.0 9.1 5 6
r 0.152 4 5 cbr 1000 ------- 2 2.0 9.1 1 2
+ 0.152 5 6 cbr 1000 ------- 2 2.0 9.1 1 2
- 0.152 5 6 cbr 1000 ------- 2 2.0 9.1 1 2
- 0.152 4 5 tcp 40 ------- 1 0.0 9.0 0 0
r 0.154 2 3 cbr 1000 ------- 2 2.0 9.1 4 5
+ 0.154 3 4 cbr 1000 ------- 2 2.0 9.1 4 5
- 0.154 3 4 cbr 1000 ------- 2 2.0 9.1 4 5
r 0.156 5 6 cbr 1000 ------- 2 2.0 9.1 0 1
+ 0.156 6 7 cbr 1000 ------- 2 2.0 9.1 0 1
- 0.156 6 7 cbr 1000 ------- 2 2.0 9.1 0 1
r 0.158 3 4 cbr 1000 ------- 2 2.0 9.1 3 4
+ 0.158 4 5 cbr 1000 ------- 2 2.0 9.1 3 4
- 0.158 4 5 cbr 1000 ------- 2 2.0 9.1 3 4
+ 0.16 2 3 cbr 1000 ------- 2 2.0 9.1 6 7
- 0.16 2 3 cbr 1000 ------- 2 2.0 9.1 6 7
r 0.162 4 5 cbr 1000 ------- 2 2.0 9.1 2 3
+ 0.162 5 6 cbr 1000 ------- 2 2.0 9.1 2 3
- 0.162 5 6 cbr 1000 ------- 2 2.0 9.1 2 3
r 0.16216 4 5 tcp 40 ------- 1 0.0 9.0 0 0
+ 0.16216 5 6 tcp 40 ------- 1 0.0 9.0 0 0
r 0.164 2 3 cbr 1000 ------- 2 2.0 9.1 5 6
+ 0.164 3 4 cbr 1000 ------- 2 2.0 9.1 5 6
- 0.164 3 4 cbr 1000 ------- 2 2.0 9.1 5 6
r 0.166 5 6 cbr 1000 ------- 2 2.0 9.1 1 2
+ 0.166 6 7 cbr 1000 ------- 2 2.0 9.1 1 2
- 0.166 6 7 cbr 1000 ------- 2 2.0 9.1 1 2
- 0.166 5 6 tcp 40 ------- 1 0.0 9.0 0 0
r 0.168 3 4 cbr 1000 ------- 2 2.0 9.1 4 5
+ 0.168 4 5 cbr 1000 ------- 2 2.0 9.1 4 5
- 0.168 4 5 cbr 1000 ------- 2 2.0 9.1 4 5
r 0.17 6 7 cbr 1000 ------- 2 2.0 9.1 0 1
+ 0.17 7 8 cbr 1000 ------- 2 2.0 9.1 0 1
- 0.17 7 8 cbr 1000 ------- 2 2.0 9.1 0 1
+ 0.17 2 3 cbr 1000 ------- 2 2.0 9.1 7 8
- 0.17 2 3 cbr 1000 ------- 2 2.0 9.1 7 8
r 0.172 4 5 cbr 1000 ------- 2 2.0 9.1 3 4
+ 0.172 5 6 cbr 1000 ------- 2 2.0 9.1 3 4
- 0.172 5 6 cbr 1000 ------- 2 2.0 9.1 3 4
r 0.174 2 3 cbr 1000 ------- 2 2.0 9.1 6 7
+ 0.174 3 4 cbr 1000 ------- 2 2.0 9.1 6 7
- 0.174 3 4 cbr 1000 ------- 2 2.0 9.1 6 7
r 0.176 5 6 cbr 1000 ------- 2 2.0 9.1 2 3
+ 0.176 6 7 cbr 1000 ------- 2 2.0 9.1 2 3
- 0.176 6 7 cbr 1000 ------- 2 2.0 9.1 2 3
r 0.17616 5 6 tcp 40 ------- 1 0.0 9.0 0 0
+ 0.17616 6 7 tcp 40 ------- 1 0.0 9.0 0 0
r 0.178 3 4 cbr 1000 ------- 2 2.0 9.1 5 6
+ 0.178 4 5 cbr 1000 ------- 2 2.0 9.1 5 6
- 0.178 4 5 cbr 1000 ------- 2 2.0 9.1 5 6
r 0.18 6 7 cbr 1000 ------- 2 2.0 9.1 1 2
+ 0.18 7 8 cbr 1000 ------- 2 2.0 9.1 1 2
- 0.18 7 8 cbr 1000 ------- 2 2.0 9.1 1 2
+ 0.18 2 3 cbr 1000 ------- 2 2.0 9.1 8 9
- 0.18 2 3 cbr 1000 ------- 2 2.0 9.1 8 9
- 0.18 6 7 tcp 40 ------- 1 0.0 9.0 0 0
r 0.182 4 5 cbr 1000 ------- 2 2.0 9.1 4 5
+ 0.182 5 6 cbr 1000 ------- 2 2.0 9.1 4 5
- 0.182 5 6 cbr 1000 ------- 2 2.0 9.1 4 5
r 0.184 7 8 cbr 1000 ------- 2 2.0 9.1 0 1
+ 0.184 8 9 cbr 1000 ------- 2 2.0 9.1 0 1
- 0.184 8 9 cbr 1000 ------- 2 2.0 9.1 0 1
r 0.184 2 3 cbr 1000 ------- 2 2.0 9.1 7 8
+ 0.184 3 4 cbr 1000 ------- 2 2.0 9.1 7 8
- 0.184 3 4 cbr 1000 ------- 2 2.0 9.1 7 8
r 0.186 5 6 cbr 1000 ------- 2 2.0 9.1 3 4
+ 0.186 6 7 cbr 1000 ------- 2 2.0 9.1 3 4
- 0.186 6 7 cbr 1000 ------- 2 2.0 9.1 3 4
r 0.188 3 4 cbr 1000 ------- 2 2.0 9.1 6 7
+ 0.188 4 5 cbr 1000 ------- 2 2.0 9.1 6 7
- 0.188 4 5 cbr 1000 ------- 2 2.0 9.1 6 7
r 0.19 6 7 cbr 1000 ------- 2 2.0 9.1 2 3
+ 0.19 7 8 cbr 1000 ------- 2 2.0 9.1 2 3
- 0.19 7 8 cbr 1000 ------- 2 2.0 9.1 2 3
+ 0.19 2 3 cbr 1000 ------- 2 2.0 9.1 9 10
- 0.19 2 3 cbr 1000 ------- 2 2.0 9.1 9 10
r 0.19016 6 7 tcp 40 ------- 1 0.0 9.0 0 0
+ 0.19016 7 8 tcp 40 ------- 1 0.0 9.0 0 0
r 0.192 4 5 cbr 1000 ------- 2 2.0 9.1 5 6
+ 0.192 5 6 cbr 1000 ------- 2 2.0 9.1 5 6
- 0.192 5 6 cbr 1000 ------- 2 2.0 9.1 5 6
r 0.194 7 8 cbr 1000 ------- 2 2.0 9.1 1 2
+ 0.194 8 9 cbr 1000 ------- 2 2.0 9.1 1 2
- 0.194 8 9 cbr 1000 ------- 2 2.0 9.1 1 2
r 0.194 2 3 cbr 1000 ------- 2 2.0 9.1 8 9
+ 0.194 3 4 cbr 1000 ------- 2 2.0 9.1 8 9
- 0.194 3 4 cbr 1000 ------- 2 2.0 9.1 8 9
- 0.194 7 8 tcp 40 ------- 1 0.0 9.0 0 0
r 0.196 5 6 cbr 1000 ------- 2 2.0 9.1 4 5
+ 0.196 6 7 cbr 1000 ------- 2 2.0 9.1 4 5
- 0.196 6 7 cbr 1000 ------- 2 2.0 9.1 4 5
r 0.198 3 4 cbr 1000 ------- 2 2.0 9.1 7 8
+ 0.198 4 5 cbr 1000 ------- 2 2.0 9.1 7 8
- 0.198 4 5 cbr 1000 ------- 2 2.0 9.1 7 8
r 0.2 6 7 cbr 1000 ------- 2 2.0 9.1 3 4
+ 0.2 7 8 cbr 1000 ------- 2 2.0 9.1 3 4
- 0.2 7 8 cbr 1000 ------- 2 2.0 9.1 3 4
+ 0.2 2 3 cbr 1000 ------- 2 2.0 9.1 10 11
- 0.2 2 3 cbr 1000 ------- 2 2.0 9.1 10 11
r 0.202 4 5 cbr 1000 ------- 2 2.0 9.1 6 7
+ 0.202 5 6 cbr 1000 ------- 2 2.0 9.1 6 7
- 0.202 5 6 cbr 1000 ------- 2 2.0 9.1 6 7
r 0.204 7 8 cbr 1000 ------- 2 2.0 9.1 2 3
+ 0.204 8 9 cbr 1000 ------- 2 2.0 9.1 2 3
- 0.204 8 9 cbr 1000 ------- 2 2.0 9.1 2 3
r 0.204 2 3 cbr 1000 ------- 2 2.0 9.1 9 10
+ 0.204 3 4 cbr 1000 ------- 2 2.0 9.1 9 10
- 0.204 3 4 cbr 1000 ------- 2 2.0 9.1 9 10
r 0.20416 7 8 tcp 40 ------- 1 0.0 9.0 0 0
+ 0.20416 8 9 tcp 40 ------- 1 0.0 9.0 0 0
r 0.206 5 6 cbr 1000 ------- 2 2.0 9.1 5 6
+ 0.206 6 7 cbr 1000 ------- 2 2.0 9.1 5 6
- 0.206 6 7 cbr 1000 ------- 2 2.0 9.1 5 6
r 0.208 3 4 cbr 1000 ------- 2 2.0 9.1 8 9
+ 0.208 4 5 cbr 1000 ------- 2 2.0 9.1 8 9
- 0.208 4 5 cbr 1000 ------- 2 2.0 9.1 8 9
r 0.21 6 7 cbr 1000 ------- 2 2.0 9.1 4 5
+ 0.21 7 8 cbr 1000 ------- 2 2.0 9.1 4 5
- 0.21 7 8 cbr 1000 ------- 2 2.0 9.1 4 5
+ 0.21 2 3 cbr 1000 ------- 2 2.0 9.1 11 12
- 0.21 2 3 cbr 1000 ------- 2 2.0 9.1 11 12
r 0.212 8 9 cbr 1000 ------- 2 2.0 9.1 0 1
r 0.212 4 5 cbr 1000 ------- 2 2.0 9.1 7 8
+ 0.212 5 6 cbr 1000 ------- 2 2.0 9.1 7 8
- 0.212 5 6 cbr 1000 ------- 2 2.0 9.1 7 8
- 0.212 8 9 tcp 40 ------- 1 0.0 9.0 0 0
r 0.214 7 8 cbr 1000 ------- 2 2.0 9.1 3 4
+ 0.214 8 9 cbr 1000 ------- 2 2.0 9.1 3 4
- 0.214 8 9 cbr 1000 ------- 2 2.0 9.1 3 4
r 0.214 2 3 cbr 1000 ------- 2 2.0 9.1 10 11
+ 0.214 3 4 cbr 1000 ------- 2 2.0 9.1 10 11
- 0.214 3 4 cbr 1000 ------- 2 2.0 9.1 10 11
r 0.216 5 6 cbr 1000 ------- 2 2.0 9.1 6 7
+ 0.216 6 7 cbr 1000 ------- 2 2.0 9.1 6 7
- 0.216 6 7 cbr 1000 ------- 2 2.0 9.1 6 7
r 0.218 3 4 cbr 1000 ------- 2 2.0 9.1 9 10
+ 0.218 4 5 cbr 1000 ------- 2 2.0 9.1 9 10
- 0.218 4 5 cbr 1000 ------- 2 2.0 9.1 9 10
r 0.22 6 7 cbr 1000 ------- 2 2.0 9.1 5 6
+ 0.22 7 8 cbr 1000 ------- 2 2.0 9.1 5 6
- 0.22 7 8 cbr 1000 ------- 2 2.0 9.1 5 6
+ 0.22 2 3 cbr 1000 ------- 2 2.0 9.1 12 13
- 0.22 2 3 cbr 1000 ------- 2 2.0 9.1 12 13
r 0.222 8 9 cbr 1000 ------- 2 2.0 9.1 1 2
r 0.222 4 5 cbr 1000 ------- 2 2.0 9.1 8 9
+ 0.222 5 6 cbr 1000 ------- 2 2.0 9.1 8 9
- 0.222 5 6 cbr 1000 ------- 2 2.0 9.1 8 9
r 0.224 7 8 cbr 1000 ------- 2 2.0 9.1 4 5
+ 0.224 8 9 cbr 1000 ------- 2 2.0 9.1 4 5
- 0.224 8 9 cbr 1000 ------- 2 2.0 9.1 4 5
r 0.224 2 3 cbr 1000 ------- 2 2.0 9.1 11 12
+ 0.224 3 4 cbr 1000 ------- 2 2.0 9.1 11 12
- 0.224 3 4 cbr 1000 ------- 2 2.0 9.1 11 12
r 0.226 5 6 cbr 1000 ------- 2 2.0 9.1 7 8
+ 0.226 6 7 cbr 1000 ------- 2 2.0 9.1 7 8
- 0.226 6 7 cbr 1000 ------- 2 2.0 9.1 7 8
r 0.228 3 4 cbr 1000 ------- 2 2.0 9.1 10 11
+ 0.228 4 5 cbr 1000 ------- 2 2.0 9.1 10 11
- 0.228 4 5 cbr 1000 ------- 2 2.0 9.1 10 11
r 0.23 6 7 cbr 1000 ------- 2 2.0 9.1 6 7
+ 0.23 7 8 cbr 1000 ------- 2 2.0 9.1 6 7
- 0.23 7 8 cbr 1000 ------- 2 2.0 9.1 6 7
+ 0.23 2 3 cbr 1000 ------- 2 2.0 9.1 13 14
- 0.23 2 3 cbr 1000 ------- 2 2.0 9.1 13 14
r 0.232 8 9 cbr 1000 ------- 2 2.0 9.1 2 3
r 0.232 4 5 cbr 1000 ------- 2 2.0 9.1 9 10
+ 0.232 5 6 cbr 1000 ------- 2 2.0 9.1 9 10
- 0.232 5 6 cbr 1000 ------- 2 2.0 9.1 9 10
r 0.23232 8 9 tcp 40 ------- 1 0.0 9.0 0 0
+ 0.23232 9 8 ack 40 ------- 1 9.0 0.0 0 15
- 0.23232 9 8 ack 40 ------- 1 9.0 0.0 0 15
r 0.234 7 8 cbr 1000 ------- 2 2.0 9.1 5 6
+ 0.234 8 9 cbr 1000 ------- 2 2.0 9.1 5 6
- 0.234 8 9 cbr 1000 ------- 2 2.0 9.1 5 6
r 0.234 2 3 cbr 1000 ------- 2 2.0 9.1 12 13
+ 0.234 3 4 cbr 1000 ------- 2 2.0 9.1 12 13
- 0.234 3 4 cbr 1000 ------- 2 2.0 9.1 12 13
r 0.236 5 6 cbr 1000 ------- 2 2.0 9.1 8 9
+ 0.236 6 7 cbr 1000 ------- 2 2.0 9.1 8 9
- 0.236 6 7 cbr 1000 ------- 2 2.0 9.1 8 9
r 0.238 3 4 cbr 1000 ------- 2 2.0 9.1 11 12
+ 0.238 4 5 cbr 1000 ------- 2 2.0 9.1 11 12
- 0.238 4 5 cbr 1000 ------- 2 2.0 9.1 11 12
r 0.24 6 7 cbr 1000 ------- 2 2.0 9.1 7 8
+ 0.24 7 8 cbr 1000 ------- 2 2.0 9.1 7 8
- 0.24 7 8 cbr 1000 ------- 2 2.0 9.1 7 8
+ 0.24 2 3 cbr 1000 ------- 2 2.0 9.1 14 16
- 0.24 2 3 cbr 1000 ------- 2 2.0 9.1 14 16
r 0.242 8 9 cbr 1000 ------- 2 2.0 9.1 3 4
r 0.242 4 5 cbr 1000 ------- 2 2.0 9.1 10 11
+ 0.242 5 6 cbr 1000 ------- 2 2.0 9.1 10 11
- 0.242 5 6 cbr 1000 ------- 2 2.0 9.1 10 11
r 0.244 7 8 cbr 1000 ------- 2 2.0 9.1 6 7
+ 0.244 8 9 cbr 1000 ------- 2 2.0 9.1 6 7
- 0.244 8 9 cbr 1000 ------- 2 2.0 9.1 6 7
r 0.244 2 3 cbr 1000 ------- 2 2.0 9.1 13 14
+ 0.244 3 4 cbr 1000 ------- 2 2.0 9.1 13 14
- 0.244 3 4 cbr 1000 ------- 2 2.0 9.1 13 14
r 0.246 5 6 cbr 1000 ------- 2 2.0 9.1 9 10
+ 0.246 6 7 cbr 1000 ------- 2 2.0 9.1 9 10
- 0.246 6 7 cbr 1000 ------- 2 2.0 9.1 9 10
r 0.248 3 4 cbr 1000 ------- 2 2.0 9.1 12 13
+ 0.248 4 5 cbr 1000 ------- 2 2.0 9.1 12 13
- 0.248 4 5 cbr 1000 ------- 2 2.0 9.1 12 13
r 0.25 6 7 cbr 1000 ------- 2 2.0 9.1 8 9
+ 0.25 7 8 cbr 1000 ------- 2 2.0 9.1 8 9
- 0.25 7 8 cbr 1000 ------- 2 2.0 9.1 8 9
+ 0.25 2 3 cbr 1000 ------- 2 2.0 9.1 15 17
- 0.25 2 3 cbr 1000 ------- 2 2.0 9.1 15 17
r 0.252 8 9 cbr 1000 ------- 2 2.0 9.1 4 5
r 0.252 4 5 cbr 1000 ------- 2 2.0 9.1 11 12
+ 0.252 5 6 cbr 1000 ------- 2 2.0 9.1 11 12
- 0.252 5 6 cbr 1000 ------- 2 2.0 9.1 11 12
r 0.25264 9 8 ack 40 ------- 1 9.0 0.0 0 15
+ 0.25264 8 7 ack 40 ------- 1 9.0 0.0 0 15
- 0.25264 8 7 ack 40 ------- 1 9.0 0.0 0 15
r 0.254 7 8 cbr 1000 ------- 2 2.0 9.1 7 8
+ 0.254 8 9 cbr 1000 ------- 2 2.0 9.1 7 8
- 0.254 8 9 cbr 1000 ------- 2 2.0 9.1 7 8
r 0.254 2 3 cbr 1000 ------- 2 2.0 9.1 14 16
+ 0.254 3 4 cbr 1000 ------- 2 2.0 9.1 14 16
- 0.254 3 4 cbr 1000 ------- 2 2.0 9.1 14 16
r 0.256 5 6 cbr 1000 ------- 2 2.0 9.1 10 11
+ 0.256 6 7 cbr 1000 ------- 2 2.0 9.1 10 11
- 0.256 6 7 cbr 1000 ------- 2 2.0 9.1 10 11
r 0.258 3 4 cbr 1000 ------- 2 2.0 9.1 13 14
+ 0.258 4 5 cbr 1000 ------- 2 2.0 9.1 13 14
- 0.258 4 5 cbr 1000 ------- 2 2.0 9.1 13 14
r 0.26 6 7 cbr 1000 ------- 2 2.0 9.1 9 10
+ 0.26 7 8 cbr 1000 ------- 2 2.0 9.1 9 10
- 0.26 7 8 cbr 1000 ------- 2 2.0 9.1 9 10
+ 0.26 2 3 cbr 1000 ------- 2 2.0 9.1 16 18
- 0.26 2 3 cbr 1000 ------- 2 2.0 9.1 16 18
r 0.262 8 9 cbr 1000 ------- 2 2.0 9.1 5 6
r 0.262 4 5 cbr 1000 ------- 2 2.0 9.1 12 13
+ 0.262 5 6 cbr 1000 ------- 2 2.0 9.1 12 13
- 0.262 5 6 cbr 1000 ------- 2 2.0 9.1 12 13
r 0.2628 8 7 ack 40 ------- 1 9.0 0.0 0 15
+ 0.2628 7 6 ack 40 ------- 1 9.0 0.0 0 15
- 0.2628 7 6 ack 40 ------- 1 9.0 0.0 0 15
r 0.264 7 8 cbr 1000 ------- 2 2.0 9.1 8 9
+ 0.264 8 9 cbr 1000 ------- 2 2.0 9.1 8 9
- 0.264 8 9 cbr 1000 ------- 2 2.0 9.1 8 9
r 0.264 2 3 cbr 1000 ------- 2 2.0 9.1 15 17
+ 0.264 3 4 cbr 1000 ------- 2 2.0 9.1 15 17
- 0.264 3 4 cbr 1000 ------- 2 2.0 9.1 15 17
r 0.266 5 6 cbr 1000 ------- 2 2.0 9.1 11 12
+ 0.266 6 7 cbr 1000 ------- 2 2.0 9.1 11 12
- 0.266 6 7 cbr 1000 ------- 2 2.0 9.1 11 12
r 0.268 3 4 cbr 1000 ------- 2 2.0 9.1 14 16
+ 0.268 4 5 cbr 1000 ------- 2 2.0 9.1 14 16
- 0.268 4 5 cbr 1000 ------- 2 2.0 9.1 14 16
r 0.27 6 7 cbr 1000 ------- 2 2.0 9.1 10 11
+ 0.27 7 8 cbr 1000 ------- 2 2.0 9.1 10 11
- 0.27 7 8 cbr 1000 ------- 2 2.0 9.1 10 11
+ 0.27 2 3 cbr 1000 ------- 2 2.0 9.1 17 19
- 0.27 2 3 cbr 1000 ------- 2 2.0 9.1 17 19
r 0.272 8 9 cbr 1000 ------- 2 2.0 9.1 6 7
r 0.272 4 5 cbr 1000 ------- 2 2.0 9.1 13 14
+ 0.272 5 6 cbr 1000 ------- 2 2.0 9.1 13 14
- 0.272 5 6 cbr 1000 ------- 2 2.0 9.1 13 14
r 0.27296 7 6 ack 40 ------- 1 9.0 0.0 0 15
+ 0.27296 6 5 ack 40 ------- 1 9.0 0.0 0 15
- 0.27296 6 5 ack 40 ------- 1 9.0 0.0 0 15
r 0.274 7 8 cbr 1000 ------- 2 2.0 9.1 9 10
+ 0.274 8 9 cbr 1000 ------- 2 2.0 9.1 9 10
- 0.274 8 9 cbr 1000 ------- 2 2.0 9.1 9 10
r 0.274 2 3 cbr 1000 ------- 2 2.0 9.1 16 18
+ 0.274 3 4 cbr 1000 ------- 2 2.0 9.1 16 18
- 0.274 3 4 cbr 1000 ------- 2 2.0 9.1 16 18
r 0.276 5 6 cbr 1000 ------- 2 2.0 9.1 12 13
+ 0.276 6 7 cbr 1000 ------- 2 2.0 9.1 12 13
- 0.276 6 7 cbr 1000 ------- 2 2.0 9.1 12 13
r 0.278 3 4 cbr 1000 ------- 2 2.0 9.1 15 17
+ 0.278 4 5 cbr 1000 ------- 2 2.0 9.1 15 17
- 0.278 4 5 cbr 1000 ------- 2 2.0 9.1 15 17
r 0.28 6 7 cbr 1000 ------- 2 2.0 9.1 11 12
+ 0.28 7 8 cbr 1000 ------- 2 2.0 9.1 11 12
- 0.28 7 8 cbr 1000 ------- 2 2.0 9.1 11 12
+ 0.28 2 3 cbr 1000 ------- 2 2.0 9.1 18 20
- 0.28 2 3 cbr 1000 ------- 2 2.0 9.1 18 20
r 0.282 8 9 cbr 1000 ------- 2 2.0 9.1 7 8
r 0.282 4 5 cbr 1000 ------- 2 2.0 9.1 14 16
+ 0.282 5 6 cbr 1000 ------- 2 2.0 9.1 14 16
- 0.282 5 6 cbr 1000 ------- 2 2.0 9.1 14 16
r 0.28312 6 5 ack 40 ------- 1 9.0 0.0 0 15
+ 0.28312 5 4 ack 40 ------- 1 9.0 0.0 0 15
- 0.28312 5 4 ack 40 ------- 1 9.0 0.0 0 15
r 0.284 7 8 cbr 1000 ------- 2 2.0 9.1 10 11
+ 0.284 8 9 cbr 1000 ------- 2 2.0 9.1 10 11
- 0.284 8 9 cbr 1000 ------- 2 2.0 9.1 10 11
r 0.284 2 3 cbr 1000 ------- 2 2.0 9.1 17 19
+ 0.284 3 4 cbr 1000 ------- 2 2.0 9.1 17 19
- 0.284 3 4 cbr 1000 ------- 2 2.0 9.1 17 19
r 0.286 5 6 cbr 1000 ------- 2 2.0 9.1 13 14
+ 0.286 6 7 cbr 1000 ------- 2 2.0 9.1 13 14
- 0.286 6 7 cbr 1000 ------- 2 2.0 9.1 13 14
r 0.288 3 4 cbr 1000 ------- 2 2.0 9.1 16 18
+ 0.288 4 5 cbr 1000 ------- 2 2.0 9.1 16 18
- 0.288 4 5 cbr 1000 ------- 2 2.0 9.1 16 18
r 0.29 6 7 cbr 1000 ------- 2 2.0 9.1 12 13
+ 0.29 7 8 cbr 1000 ------- 2 2.0 9.1 12 13
- 0.29 7 8 cbr 1000 ------- 2 2.0 9.1 12 13
+ 0.29 2 3 cbr 1000 ------- 2 2.0 9.1 19 21
- 0.29 2 3 cbr 1000 ------- 2 2.0 9.1 19 21
r 0.292 8 9 cbr 1000 ------- 2 2.0 9.1 8 9
r 0.292 4 5 cbr 1000 ------- 2 2.0 9.1 15 17
+ 0.292 5 6 cbr 1000 ------- 2 2.0 9.1 15 17
- 0.292 5 6 cbr 1000 ------- 2 2.0 9.1 15 17
r 0.29328 5 4 ack 40 ------- 1 9.0 0.0 0 15
+ 0.29328 4 3 ack 40 ------- 1 9.0 0.0 0 15
- 0.29328 4 3 ack 40 ------- 1 9.0 0.0 0 15
r 0.294 7 8 cbr 1000 ------- 2 2.0 9.1 11 12
+ 0.294 8 9 cbr 1000 ------- 2 2.0 9.1 11 12
- 0.294 8 9 cbr 1000 ------- 2 2.0 9.1 11 12
r 0.294 2 3 cbr 1000 ------- 2 2.0 9.1 18 20
+ 0.294 3 4 cbr 1000 ------- 2 2.0 9.1 18 20
- 0.294 3 4 cbr 1000 ------- 2 2.0 9.1 18 20
r 0.296 5 6 cbr 1000 ------- 2 2.0 9.1 14 16
+ 0.296 6 7 cbr 1000 ------- 2 2.0 9.1 14 16
- 0.296 6 7 cbr 1000 ------- 2 2.0 9.1 14 16
r 0.298 3 4 cbr 1000 ------- 2 2.0 9.1 17 19
+ 0.298 4 5 cbr 1000 ------- 2 2.0 9.1 17 19
- 0.298 4 5 cbr 1000 ------- 2 2.0 9.1 17 19
r 0.3 6 7 cbr 1000 ------- 2 2.0 9.1 13 14
+ 0.3 7 8 cbr 1000 ------- 2 2.0 9.1 13 14
- 0.3 7 8 cbr 1000 ------- 2 2.0 9.1 13 14
+ 0.3 2 3 cbr 1000 ------- 2 2.0 9.1 20 22
- 0.3 2 3 cbr 1000 ------- 2 2.0 9.1 20 22
r 0.302 8 9 cbr 1000 ------- 2 2.0 9.1 9 10
r 0.302 4 5 cbr 1000 ------- 2 2.0 9.1 16 18
+ 0.302 5 6 cbr 1000 ------- 2 2.0 9.1 16 18
- 0.302 5 6 cbr 1000 ------- 2 2.0 9.1 16 18
r 0.30344 4 3 ack 40 ------- 1 9.0 0.0 0 15
+ 0.30344 3 2 ack 40 ------- 1 9.0 0.0 0 15
- 0.30344 3 2 ack 40 ------- 1 9.0 0.0 0 15
r 0.304 7 8 cbr 1000 ------- 2 2.0 9.1 12 13
+ 0.304 8 9 cbr 1000 ------- 2 2.0 9.1 12 13
- 0.304 8 9 cbr 1000 ------- 2 2.0 9.1 12 13
r 0.304 2 3 cbr 1000 ------- 2 2.0 9.1 19 21
+ 0.304 3 4 cbr 1000 ------- 2 2.0 9.1 19 21
- 0.304 3 4 cbr 1000 ------- 2 2.0 9.1 19 21
r 0.306 5 6 cbr 1000 ------- 2 2.0 9.1 15 17
+ 0.306 6 7 cbr 1000 ------- 2 2.0 9.1 15 17
- 0.306 6 7 cbr 1000 ------- 2 2.0 9.1 15 17
r 0.308 3 4 cbr 1000 ------- 2 2.0 9.1 18 20
+ 0.308 4 5 cbr 1000 ------- 2 2.0 9.1 18 20
- 0.308 4 5 cbr 1000 ------- 2 2.0 9.1 18 20
r 0.31 6 7 cbr 1000 ------- 2 2.0 9.1 14 16
+ 0.31 7 8 cbr 1000 ------- 2 2.0 9.1 14 16
- 0.31 7 8 cbr 1000 ------- 2 2.0 9.1 14 16
+ 0.31 2 3 cbr 1000 ------- 2 2.0 9.1 21 23
- 0.31 2 3 cbr 1000 ------- 2 2.0 9.1 21 23
r 0.312 8 9 cbr 1000 ------- 2 2.0 9.1 10 11
r 0.312 4 5 cbr 1000 ------- 2 2.0 9.1 17 19
+ 0.312 5 6 cbr 1000 ------- 2 2.0 9.1 17 19
- 0.312 5 6 cbr 1000 ------- 2 2.0 9.1 17 19
r 0.3136 3 2 ack 40 ------- 1 9.0 0.0 0 15
+ 0.3136 2 1 ack 40 ------- 1 9.0 0.0 0 15
- 0.3136 2 1 ack 40 ------- 1 9.0 0.0 0 15
r 0.314 7 8 cbr 1000 ------- 2 2.0 9.1 13 14
+ 0.314 8 9 cbr 1000 ------- 2 2.0 9.1 13 14
- 0.314 8 9 cbr 1000 ------- 2 2.0 9.1 13 14
r 0.314 2 3 cbr 1000 ------- 2 2.0 9.1 20 22
+ 0.314 3 4 cbr 1000 ------- 2 2.0 9.1 20 22
- 0.314 3 4 cbr 1000 ------- 2 2.0 9.1 20 22
r 0.316 5 6 cbr 1000 ------- 2 2.0 9.1 16 18
+ 0.316 6 7 cbr 1000 ------- 2 2.0 9.1 16 18
- 0.316 6 7 cbr 1000 ------- 2 2.0 9.1 16 18
r 0.318 3 4 cbr 1000 ------- 2 2.0 9.1 19 21
+ 0.318 4 5 cbr 1000 ------- 2 2.0 9.1 19 21
- 0.318 4 5 cbr 1000 ------- 2 2.0 9.1 19 21
r 0.32 6 7 cbr 1000 ------- 2 2.0 9.1 15 17
+ 0.32 7 8 cbr 1000 ------- 2 2.0 9.1 15 17
- 0.32 7 8 cbr 1000 ------- 2 2.0 9.1 15 17
+ 0.32 2 3 cbr 1000 ------- 2 2.0 9.1 22 24
- 0.32 2 3 cbr 1000 ------- 2 2.0 9.1 22 24
r 0.322 8 9 cbr 1000 ------- 2 2.0 9.1 11 12
r 0.322 4 5 cbr 1000 ------- 2 2.0 9.1 18 20
+ 0.322 5 6 cbr 1000 ------- 2 2.0 9.1 18 20
- 0.322 5 6 cbr 1000 ------- 2 2.0 9.1 18 20
r 0.32376 2 1 ack 40 ------- 1 9.0 0.0 0 15
+ 0.32376 1 0 ack 40 ------- 1 9.0 0.0 0 15
- 0.32376 1 0 ack 40 ------- 1 9.0 0.0 0 15
r 0.324 7 8 cbr 1000 ------- 2 2.0 9.1 14 16
+ 0.324 8 9 cbr 1000 ------- 2 2.0 9.1 14 16
- 0.324 8 9 cbr 1000 ------- 2 2.0 9.1 14 16
r 0.324 2 3 cbr 1000 ------- 2 2.0 9.1 21 23
+ 0.324 3 4 cbr 1000 ------- 2 2.0 9.1 21 23
- 0.324 3 4 cbr 1000 ------- 2 2.0 9.1 21 23
r 0.326 5 6 cbr 1000 ------- 2 2.0 9.1 17 19
+ 0.326 6 7 cbr 1000 ------- 2 2.0 9.1 17 19
- 0.326 6 7 cbr 1000 ------- 2 2.0 9.1 17 19
r 0.328 3 4 cbr 1000 ------- 2 2.0 9.1 20 22
+ 0.328 4 5 cbr 1000 ------- 2 2.0 9.1 20 22
- 0.328 4 5 cbr 1000 ------- 2 2.0 9.1 20 22
r 0.33 6 7 cbr 1000 ------- 2 2.0 9.1 16 18
+ 0.33 7 8 cbr 1000 ------- 2 2.0 9.1 16 18
- 0.33 7 8 cbr 1000 ------- 2 2.0 9.1 16 18
+ 0.33 2 3 cbr 1000 ------- 2 2.0 9.1 23 25
- 0.33 2 3 cbr 1000 ------- 2 2.0 9.1 23 25
r 0.332 8 9 cbr 1000 ------- 2 2.0 9.1 12 13
r 0.332 4 5 cbr 1000 ------- 2 2.0 9.1 19 21
+ 0.332 5 6 cbr 1000 ------- 2 2.0 9.1 19 21
- 0.332 5 6 cbr 1000 ------- 2 2.0 9.1 19 21
r 0.33392 1 0 ack 40 ------- 1 9.0 0.0 0 15
+ 0.33392 0 1 tcp 1040 ------- 1 0.0 9.0 1 26
- 0.33392 0 1 tcp 1040 ------- 1 0.0 9.0 1 26
+ 0.33392 0 1 tcp 1040 ------- 1 0.0 9.0 2 27
r 0.334 7 8 cbr 1000 ------- 2 2.0 9.1 15 17
+ 0.334 8 9 cbr 1000 ------- 2 2.0 9.1 15 17
- 0.334 8 9 cbr 1000 ------- 2 2.0 9.1 15 17
r 0.334 2 3 cbr 1000 ------- 2 2.0 9.1 22 24
+ 0.334 3 4 cbr 1000 ------- 2 2.0 9.1 22 24
- 0.334 3 4 cbr 1000 ------- 2 2.0 9.1 22 24
r 0.336 5 6 cbr 1000 ------- 2 2.0 9.1 18 20
+ 0.336 6 7 cbr 1000 ------- 2 2.0 9.1 18 20
- 0.336 6 7 cbr 1000 ------- 2 2.0 9.1 18 20
r 0.338 3 4 cbr 1000 ------- 2 2.0 9.1 21 23
+ 0.338 4 5 cbr 1000 ------- 2 2.0 9.1 21 23
- 0.338 4 5 cbr 1000 ------- 2 2.0 9.1 21 23
- 0.33808 0 1 tcp 1040 ------- 1 0.0 9.0 2 27
r 0.34 6 7 cbr 1000 ------- 2 2.0 9.1 17 19
+ 0.34 7 8 cbr 1000 ------- 2 2.0 9.1 17 19
- 0.34 7 8 cbr 1000 ------- 2 2.0 9.1 17 19
+ 0.34 2 3 cbr 1000 ------- 2 2.0 9.1 24 28
- 0.34 2 3 cbr 1000 ------- 2 2.0 9.1 24 28
r 0.342 8 9 cbr 1000 ------- 2 2.0 9.1 13 14
r 0.342 4 5 cbr 1000 ------- 2 2.0 9.1 20 22
+ 0.342 5 6 cbr 1000 ------- 2 2.0 9.1 20 22
- 0.342 5 6 cbr 1000 ------- 2 2.0 9.1 20 22
r 0.344 7 8 cbr 1000 ------- 2 2.0 9.1 16 18
+ 0.344 8 9 cbr 1000 ------- 2 2.0 9.1 16 18
- 0.344 8 9 cbr 1000 ------- 2 2.0 9.1 16 18
r 0.344 2 3 cbr 1000 ------- 2 2.0 9.1 23 25
+ 0.344 3 4 cbr 1000 ------- 2 2.0 9.1 23 25
- 0.344 3 4 cbr 1000 ------- 2 2.0 9.1 23 25
r 0.346 5 6 cbr 1000 ------- 2 2.0 9.1 19 21
+ 0.346 6 7 cbr 1000 ------- 2 2.0 9.1 19 21
- 0.346 6 7 cbr 1000 ------- 2 2.0 9.1 19 21
r 0.348 3 4 cbr 1000 ------- 2 2.0 9.1 22 24
+ 0.348 4 5 cbr 1000 ------- 2 2.0 9.1 22 24
- 0.348 4 5 cbr 1000 ------- 2 2.0 9.1 22 24
r 0.34808 0 1 tcp 1040 ------- 1 0.0 9.0 1 26
+ 0.34808 1 2 tcp 1040 ------- 1 0.0 9.0 1 26
- 0.34808 1 2 tcp 1040 ------- 1 0.0 9.0 1 26
r 0.35 6 7 cbr 1000 ------- 2 2.0 9.1 18 20
+ 0.35 7 8 cbr 1000 ------- 2 2.0 9.1 18 20
- 0.35 7 8 cbr 1000 ------- 2 2.0 9.1 18 20
+ 0.35 2 3 cbr 1000 ------- 2 2.0 9.1 25 29
- 0.35 2 3 cbr 1000 ------- 2 2.0 9.1 25 29
r 0.352 8 9 cbr 1000 ------- 2 2.0 9.1 14 16
r 0.352 4 5 cbr 1000 ------- 2 2.0 9.1 21 23
+ 0.352 5 6 cbr 1000 ------- 2 2.0 9.1 21 23
- 0.352 5 6 cbr 1000 ------- 2 2.0 9.1 21 23
r 0.35224 0 1 tcp 1040 ------- 1 0.0 9.0 2 27
+ 0.35224 1 2 tcp 1040 ------- 1 0.0 9.0 2 27
- 0.35224 1 2 tcp 1040 ------- 1 0.0 9.0 2 27
r 0.354 7 8 cbr 1000 ------- 2 2.0 9.1 17 19
+ 0.354 8 9 cbr 1000 ------- 2 2.0 9.1 17 19
- 0.354 8 9 cbr 1000 ------- 2 2.0 9.1 17 19
r 0.354 2 3 cbr 1000 ------- 2 2.0 9.1 24 28
+ 0.354 3 4 cbr 1000 ------- 2 2.0 9.1 24 28
- 0.354 3 4 cbr 1000 ------- 2 2.0 9.1 24 28
r 0.356 5 6 cbr 1000 ------- 2 2.0 9.1 20 22
+ 0.356 6 7 cbr 1000 ------- 2 2.0 9.1 20 22
- 0.356 6 7 cbr 1000 ------- 2 2.0 9.1 20 22
r 0.358 3 4 cbr 1000 ------- 2 2.0 9.1 23 25
+ 0.358 4 5 cbr 1000 ------- 2 2.0 9.1 23 25
- 0.358 4 5 cbr 1000 ------- 2 2.0 9.1 23 25
r 0.36 6 7 cbr 1000 ------- 2 2.0 9.1 19 21
+ 0.36 7 8 cbr 1000 ------- 2 2.0 9.1 19 21
- 0.36 7 8 cbr 1000 ------- 2 2.0 9.1 19 21
+ 0.36 2 3 cbr 1000 ------- 2 2.0 9.1 26 30
- 0.36 2 3 cbr 1000 ------- 2 2.0 9.1 26 30
r 0.362 8 9 cbr 1000 ------- 2 2.0 9.1 15 17
r 0.362 4 5 cbr 1000 ------- 2 2.0 9.1 22 24
+ 0.362 5 6 cbr 1000 ------- 2 2.0 9.1 22 24
- 0.362 5 6 cbr 1000 ------- 2 2.0 9.1 22 24
r 0.36224 1 2 tcp 1040 ------- 1 0.0 9.0 1 26
+ 0.36224 2 3 tcp 1040 ------- 1 0.0 9.0 1 26
r 0.364 7 8 cbr 1000 ------- 2 2.0 9.1 18 20
+ 0.364 8 9 cbr 1000 ------- 2 2.0 9.1 18 20
- 0.364 8 9 cbr 1000 ------- 2 2.0 9.1 18 20
r 0.364 2 3 cbr 1000 ------- 2 2.0 9.1 25 29
+ 0.364 3 4 cbr 1000 ------- 2 2.0 9.1 25 29
- 0.364 3 4 cbr 1000 ------- 2 2.0 9.1 25 29
- 0.364 2 3 tcp 1040 ------- 1 0.0 9.0 1 26
r 0.366 5 6 cbr 1000 ------- 2 2.0 9.1 21 23
+ 0.366 6 7 cbr 1000 ------- 2 2.0 9.1 21 23
- 0.366 6 7 cbr 1000 ------- 2 2.0 9.1 21 23
r 0.3664 1 2 tcp 1040 ------- 1 0.0 9.0 2 27
+ 0.3664 2 3 tcp 1040 ------- 1 0.0 9.0 2 27
r 0.368 3 4 cbr 1000 ------- 2 2.0 9.1 24 28
+ 0.368 4 5 cbr 1000 ------- 2 2.0 9.1 24 28
- 0.368 4 5 cbr 1000 ------- 2 2.0 9.1 24 28
- 0.36816 2 3 tcp 1040 ------- 1 0.0 9.0 2 27
r 0.37 6 7 cbr 1000 ------- 2 2.0 9.1 20 22
+ 0.37 7 8 cbr 1000 ------- 2 2.0 9.1 20 22
- 0.37 7 8 cbr 1000 ------- 2 2.0 9.1 20 22
+ 0.37 2 3 cbr 1000 ------- 2 2.0 9.1 27 31
r 0.372 8 9 cbr 1000 ------- 2 2.0 9.1 16 18
r 0.372 4 5 cbr 1000 ------- 2 2.0 9.1 23 25
+ 0.372 5 6 cbr 1000 ------- 2 2.0 9.1 23 25
- 0.372 5 6 cbr 1000 ------- 2 2.0 9.1 23 25
- 0.37232 2 3 cbr 1000 ------- 2 2.0 9.1 27 31
r 0.374 7 8 cbr 1000 ------- 2 2.0 9.1 19 21
+ 0.374 8 9 cbr 1000 ------- 2 2.0 9.1 19 21
- 0.374 8 9 cbr 1000 ------- 2 2.0 9.1 19 21
r 0.374 2 3 cbr 1000 ------- 2 2.0 9.1 26 30
+ 0.374 3 4 cbr 1000 ------- 2 2.0 9.1 26 30
- 0.374 3 4 cbr 1000 ------- 2 2.0 9.1 26 30
r 0.376 5 6 cbr 1000 ------- 2 2.0 9.1 22 24
+ 0.376 6 7 cbr 1000 ------- 2 2.0 9.1 22 24
- 0.376 6 7 cbr 1000 ------- 2 2.0 9.1 22 24
r 0.378 3 4 cbr 1000 ------- 2 2.0 9.1 25 29
+ 0.378 4 5 cbr 1000 ------- 2 2.0 9.1 25 29
- 0.378 4 5 cbr 1000 ------- 2 2.0 9.1 25 29
r 0.37816 2 3 tcp 1040 ------- 1 0.0 9.0 1 26
+ 0.37816 3 4 tcp 1040 ------- 1 0.0 9.0 1 26
- 0.37816 3 4 tcp 1040 ------- 1 0.0 9.0 1 26
r 0.38 6 7 cbr 1000 ------- 2 2.0 9.1 21 23
+ 0.38 7 8 cbr 1000 ------- 2 2.0 9.1 21 23
- 0.38 7 8 cbr 1000 ------- 2 2.0 9.1 21 23
+ 0.38 2 3 cbr 1000 ------- 2 2.0 9.1 28 32
- 0.38 2 3 cbr 1000 ------- 2 2.0 9.1 28 32
r 0.382 8 9 cbr 1000 ------- 2 2.0 9.1 17 19
r 0.382 4 5 cbr 1000 ------- 2 2.0 9.1 24 28
+ 0.382 5 6 cbr 1000 ------- 2 2.0 9.1 24 28
- 0.382 5 6 cbr 1000 ------- 2 2.0 9.1 24 28
r 0.38232 2 3 tcp 1040 ------- 1 0.0 9.0 2 27
+ 0.38232 3 4 tcp 1040 ------- 1 0.0 9.0 2 27
- 0.38232 3 4 tcp 1040 ------- 1 0.0 9.0 2 27
r 0.384 7 8 cbr 1000 ------- 2 2.0 9.1 20 22
+ 0.384 8 9 cbr 1000 ------- 2 2.0 9.1 20 22
- 0.384 8 9 cbr 1000 ------- 2 2.0 9.1 20 22
r 0.386 5 6 cbr 1000 ------- 2 2.0 9.1 23 25
+ 0.386 6 7 cbr 1000 ------- 2 2.0 9.1 23 25
- 0.386 6 7 cbr 1000 ------- 2 2.0 9.1 23 25
r 0.38632 2 3 cbr 1000 ------- 2 2.0 9.1 27 31
+ 0.38632 3 4 cbr 1000 ------- 2 2.0 9.1 27 31
- 0.38648 3 4 cbr 1000 ------- 2 2.0 9.1 27 31
r 0.388 3 4 cbr 1000 ------- 2 2.0 9.1 26 30
+ 0.388 4 5 cbr 1000 ------- 2 2.0 9.1 26 30
- 0.388 4 5 cbr 1000 ------- 2 2.0 9.1 26 30
r 0.39 6 7 cbr 1000 ------- 2 2.0 9.1 22 24
+ 0.39 7 8 cbr 1000 ------- 2 2.0 9.1 22 24
- 0.39 7 8 cbr 1000 ------- 2 2.0 9.1 22 24
+ 0.39 2 3 cbr 1000 ------- 2 2.0 9.1 29 33
- 0.39 2 3 cbr 1000 ------- 2 2.0 9.1 29 33
r 0.392 8 9 cbr 1000 ------- 2 2.0 9.1 18 20
r 0.392 4 5 cbr 1000 ------- 2 2.0 9.1 25 29
+ 0.392 5 6 cbr 1000 ------- 2 2.0 9.1 25 29
- 0.392 5 6 cbr 1000 ------- 2 2.0 9.1 25 29
r 0.39232 3 4 tcp 1040 ------- 1 0.0 9.0 1 26
+ 0.39232 4 5 tcp 1040 ------- 1 0.0 9.0 1 26
- 0.39232 4 5 tcp 1040 ------- 1 0.0 9.0 1 26
r 0.394 7 8 cbr 1000 ------- 2 2.0 9.1 21 23
+ 0.394 8 9 cbr 1000 ------- 2 2.0 9.1 21 23
- 0.394 8 9 cbr 1000 ------- 2 2.0 9.1 21 23
r 0.394 2 3 cbr 1000 ------- 2 2.0 9.1 28 32
+ 0.394 3 4 cbr 1000 ------- 2 2.0 9.1 28 32
- 0.394 3 4 cbr 1000 ------- 2 2.0 9.1 28 32
r 0.396 5 6 cbr 1000 ------- 2 2.0 9.1 24 28
+ 0.396 6 7 cbr 1000 ------- 2 2.0 9.1 24 28
- 0.396 6 7 cbr 1000 ------- 2 2.0 9.1 24 28
r 0.39648 3 4 tcp 1040 ------- 1 0.0 9.0 2 27
+ 0.39648 4 5 tcp 1040 ------- 1 0.0 9.0 2 27
- 0.39648 4 5 tcp 1040 ------- 1 0.0 9.0 2 27
r 0.4 6 7 cbr 1000 ------- 2 2.0 9.1 23 25
+ 0.4 7 8 cbr 1000 ------- 2 2.0 9.1 23 25
- 0.4 7 8 cbr 1000 ------- 2 2.0 9.1 23 25
+ 0.4 2 3 cbr 1000 ------- 2 2.0 9.1 30 34
- 0.4 2 3 cbr 1000 ------- 2 2.0 9.1 30 34
r 0.40048 3 4 cbr 1000 ------- 2 2.0 9.1 27 31
+ 0.40048 4 5 cbr 1000 ------- 2 2.0 9.1 27 31
- 0.40064 4 5 cbr 1000 ------- 2 2.0 9.1 27 31
r 0.402 8 9 cbr 1000 ------- 2 2.0 9.1 19 21
r 0.402 4 5 cbr 1000 ------- 2 2.0 9.1 26 30
+ 0.402 5 6 cbr 1000 ------- 2 2.0 9.1 26 30
- 0.402 5 6 cbr 1000 ------- 2 2.0 9.1 26 30
r 0.404 7 8 cbr 1000 ------- 2 2.0 9.1 22 24
+ 0.404 8 9 cbr 1000 ------- 2 2.0 9.1 22 24
- 0.404 8 9 cbr 1000 ------- 2 2.0 9.1 22 24
r 0.404 2 3 cbr 1000 ------- 2 2.0 9.1 29 33
+ 0.404 3 4 cbr 1000 ------- 2 2.0 9.1 29 33
- 0.404 3 4 cbr 1000 ------- 2 2.0 9.1 29 33
r 0.406 5 6 cbr 1000 ------- 2 2.0 9.1 25 29
+ 0.406 6 7 cbr 1000 ------- 2 2.0 9.1 25 29
- 0.406 6 7 cbr 1000 ------- 2 2.0 9.1 25 29
r 0.40648 4 5 tcp 1040 ------- 1 0.0 9.0 1 26
+ 0.40648 5 6 tcp 1040 ------- 1 0.0 9.0 1 26
- 0.40648 5 6 tcp 1040 ------- 1 0.0 9.0 1 26
r 0.408 3 4 cbr 1000 ------- 2 2.0 9.1 28 32
+ 0.408 4 5 cbr 1000 ------- 2 2.0 9.1 28 32
- 0.408 4 5 cbr 1000 ------- 2 2.0 9.1 28 32
r 0.41 6 7 cbr 1000 ------- 2 2.0 9.1 24 28
+ 0.41 7 8 cbr 1000 ------- 2 2.0 9.1 24 28
- 0.41 7 8 cbr 1000 ------- 2 2.0 9.1 24 28
+ 0.41 2 3 cbr 1000 ------- 2 2.0 9.1 31 35
- 0.41 2 3 cbr 1000 ------- 2 2.0 9.1 31 35
r 0.41064 4 5 tcp 1040 ------- 1 0.0 9.0 2 27
+ 0.41064 5 6 tcp 1040 ------- 1 0.0 9.0 2 27
- 0.41064 5 6 tcp 1040 ------- 1 0.0 9.0 2 27
r 0.412 8 9 cbr 1000 ------- 2 2.0 9.1 20 22
r 0.414 7 8 cbr 1000 ------- 2 2.0 9.1 23 25
+ 0.414 8 9 cbr 1000 ------- 2 2.0 9.1 23 25
- 0.414 8 9 cbr 1000 ------- 2 2.0 9.1 23 25
r 0.414 2 3 cbr 1000 ------- 2 2.0 9.1 30 34
+ 0.414 3 4 cbr 1000 ------- 2 2.0 9.1 30 34
- 0.414 3 4 cbr 1000 ------- 2 2.0 9.1 30 34
r 0.41464 4 5 cbr 1000 ------- 2 2.0 9.1 27 31
+ 0.41464 5 6 cbr 1000 ------- 2 2.0 9.1 27 31
- 0.4148 5 6 cbr 1000 ------- 2 2.0 9.1 27 31
r 0.416 5 6 cbr 1000 ------- 2 2.0 9.1 26 30
+ 0.416 6 7 cbr 1000 ------- 2 2.0 9.1 26 30
- 0.416 6 7 cbr 1000 ------- 2 2.0 9.1 26 30
r 0.418 3 4 cbr 1000 ------- 2 2.0 9.1 29 33
+ 0.418 4 5 cbr 1000 ------- 2 2.0 9.1 29 33
- 0.418 4 5 cbr 1000 ------- 2 2.0 9.1 29 33
r 0.42 6 7 cbr 1000 ------- 2 2.0 9.1 25 29
+ 0.42 7 8 cbr 1000 ------- 2 2.0 9.1 25 29
- 0.42 7 8 cbr 1000 ------- 2 2.0 9.1 25 29
+ 0.42 2 3 cbr 1000 ------- 2 2.0 9.1 32 36
- 0.42 2 3 cbr 1000 ------- 2 2.0 9.1 32 36
r 0.42064 5 6 tcp 1040 ------- 1 0.0 9.0 1 26
+ 0.42064 6 7 tcp 1040 ------- 1 0.0 9.0 1 26
- 0.42064 6 7 tcp 1040 ------- 1 0.0 9.0 1 26
r 0.422 8 9 cbr 1000 ------- 2 2.0 9.1 21 23
r 0.422 4 5 cbr 1000 ------- 2 2.0 9.1 28 32
+ 0.422 5 6 cbr 1000 ------- 2 2.0 9.1 28 32
- 0.422 5 6 cbr 1000 ------- 2 2.0 9.1 28 32