V -t * -v 1.0a5 -a 0
A -t * -n 1 -p 0 -o 0x7fffffff -c 30 -a 1
A -t * -h 1 -m 1073741823 -s 0
c -t * -i 1 -n Blue
c -t * -i 2 -n Red
c -t * -i 3 -n Yellow
n -t * -a 8 -s 8 -S UP -v circle -c black -i black
n -t * -a 4 -s 4 -S UP -v circle -c black -i black
n -t * -a 0 -s 0 -S UP -v circle -c black -i black
n -t * -a 9 -s 9 -S UP -v circle -c black -i black
n -t * -a 5 -s 5 -S UP -v circle -c black -i black
n -t * -a 1 -s 1 -S UP -v circle -c black -i black
n -t * -a 6 -s 6 -S UP -v circle -c black -i black
n -t * -a 2 -s 2 -S UP -v circle -c black -i black
n -t * -a 7 -s 7 -S UP -v circle -c black -i black
n -t * -a 3 -s 3 -S UP -v circle -c black -i black
l -t * -s 0 -d 1 -S UP -r 2000000 -D 0.01 -c black -o right
l -t * -s 1 -d 2 -S UP -r 2000000 -D 0.01 -c black -o right
l -t * -s 2 -d 3 -S UP -r 2000000 -D 0.01 -c black -o right
l -t * -s 3 -d 4 -S UP -r 2000000 -D 0.01 -c black -o right
l -t * -s 4 -d 5 -S UP -r 2000000 -D 0.01 -c black -o right
l -t * -s 5 -d 6 -S UP -r 2000000 -D 0.01 -c black -o right
l -t * -s 6 -d 7 -S UP -r 2000000 -D 0.01 -c black -o right
l -t * -s 7 -d 8 -S UP -r 2000000 -D 0.01 -c black -o right
l -t * -s 8 -d 9 -S UP -r 1000000 -D 0.02 -c black -o right
q -t * -s 9 -d 8 -a 0.5
q -t * -s 8 -d 9 -a 0.5
+ -t 0.1 -s 0 -d 1 -p tcp -e 40 -c 1 -i 0 -a 1 -x {0.0 9.0 0 ------- null}
- -t 0.1 -s 0 -d 1 -p tcp -e 40 -c 1 -i 0 -a 1 -x {0.0 9.0 0 ------- null}
h -t 0.1 -s 0 -d 1 -p tcp -e 40 -c 1 -i 0 -a 1 -x {0.0 9.0 -1 ------- null}
+ -t 0.1 -s 2 -d 3 -p tcp -e 40 -c 2 -i 1 -a 2 -x {2.0 9.1 0 ------- null}
- -t 0.1 -s 2 -d 3 -p tcp -e 40 -c 2 -i 1 -a 2 -x {2.0 9.1 0 ------- null}
h -t 0.1 -s 2 -d 3 -p tcp -e 40 -c 2 -i 1 -a 2 -x {2.0 9.1 -1 ------- null}
+ -t 0.1 -s 3 -d 4 -p tcp -e 40 -c 3 -i 2 -a 3 -x {3.0 9.2 0 ------- null}
- -t 0.1 -s 3 -d 4 -p tcp -e 40 -c 3 -i 2 -a 3 -x {3.0 9.2 0 ------- null}
h -t 0.1 -s 3 -d 4 -p tcp -e 40 -c 3 -i 2 -a 3 -x {3.0 9.2 -1 ------- null}
r -t 0.11016 -s 0 -d 1 -p tcp -e 40 -c 1 -i 0 -a 1 -x {0.0 9.0 0 ------- null}
+ -t 0.11016 -s 1 -d 2 -p tcp -e 40 -c 1 -i 0 -a 1 -x {0.0 9.0 0 ------- null}
- -t 0.11016 -s 1 -d 2 -p tcp -e 40 -c 1 -i 0 -a 1 -x {0.0 9.0 0 ------- null}
h -t 0.11016 -s 1 -d 2 -p tcp -e 40 -c 1 -i 0 -a 1 -x {0.0 9.0 -1 ------- null}
r -t 0.11016 -s 2 -d 3 -p tcp -e 40 -c 2 -i 1 -a 2 -x {2.0 9.1 0 ------- null}
+ -t 0.11016 -s 3 -d 4 -p tcp -e 40 -c 2 -i 1 -a 2 -x {2.0 9.1 0 ------- null}
- -t 0.11016 -s 3 -d 4 -p tcp -e 40 -c 2 -i 1 -a 2 -x {2.0 9.1 0 ------- null}
h -t 0.11016 -s 3 -d 4 -p tcp -e 40 -c 2 -i 1 -a 2 -x {2.0 9.1 -1 ------- null}
r -t 0.11016 -s 3 -d 4 -p tcp -e 40 -c 3 -i 2 -a 3 -x {3.0 9.2 0 ------- null}
+ -t 0.11016 -s 4 -d 5 -p tcp -e 40 -c 3 -i 2 -a 3 -x {3.0 9.2 0 ------- null}
- -t 0.11016 -s 4 -d 5 -p tcp -e 40 -c 3 -i 2 -a 3 -x {3.0 9.2 0 ------- null}
h -t 0.11016 -s 4 -d 5 -p tcp -e 40 -c 3 -i 2 -a 3 -x {3.0 9.2 -1 ------- null}
r -t 0.12032 -s 1 -d 2 -p tcp -e 40 -c 1 -i 0 -a 1 -x {0.0 9.0 0 ------- null}
+ -t 0.12032 -s 2 -d 3 -p tcp -e 40 -c 1 -i 0 -a 1 -x {0.0 9.0 0 ------- null}
- -t 0.12032 -s 2 -d 3 -p tcp -e 40 -c 1 -i 0 -a 1 -x {0.0 9.0 0 ------- null}
h -t 0.12032 -s 2 -d 3 -p tcp -e 40 -c 1 -i 0 -a 1 -x {0.0 9.0 -1 ------- null}
r -t 0.12032 -s 3 -d 4 -p tcp -e 40 -c 2 -i 1 -a 2 -x {2.0 9.1 0 ------- null}
+ -t 0.12032 -s 4 -d 5 -p tcp -e 40 -c 2 -i 1 -a 2 -x {2.0 9.1 0 ------- null}
- -t 0.12032 -s 4 -d 5 -p tcp -e 40 -c 2 -i 1 -a 2 -x {2.0 9.1 0 ------- null}
h -t 0.12032 -s 4 -d 5 -p tcp -e 40 -c 2 -i 1 -a 2 -x {2.0 9.1 -1 ------- null}
r -t 0.12032 -s 4 -d 5 -p tcp -e 40 -c 3 -i 2 -a 3 -x {3.0 9.2 0 ------- null}
+ -t 0.12032 -s 5 -d 6 -p tcp -e 40 -c 3 -i 2 -a 3 -x {3.0 9.2 0 ------- null}
- -t 0.12032 -s 5 -d 6 -p tcp -e 40 -c 3 -i 2 -a 3 -x {3.0 9.2 0 ------- null}
h -t 0.12032 -s 5 -d 6 -p tcp -e 40 -c 3 -i 2 -a 3 -x {3.0 9.2 -1 ------- null}
r -t 0.13048 -s 2 -d 3 -p tcp -e 40 -c 1 -i 0 -a 1 -x {0.0 9.0 0 ------- null}
+ -t 0.13048 -s 3 -d 4 -p tcp -e 40 -c 1 -i 0 -a 1 -x {0.0 9.0 0 ------- null}
- -t 0.13048 -s 3 -d 4 -p tcp -e 40 -c 1 -i 0 -a 1 -x {0.0 9.0 0 ------- null}
h -t 0.13048 -s 3 -d 4 -p tcp -e 40 -c 1 -i 0 -a 1 -x {0.0 9.0 -1 ------- null}
r -t 0.13048 -s 4 -d 5 -p tcp -e 40 -c 2 -i 1 -a 2 -x {2.0 9.1 0 ------- null}
+ -t 0.13048 -s 5 -d 6 -p tcp -e 40 -c 2 -i 1 -a 2 -x {2.0 9.1 0 ------- null}
- -t 0.13048 -s 5 -d 6 -p tcp -e 40 -c 2 -i 1 -a 2 -x {2.0 9.1 0 ------- null}
h -t 0.13048 -s 5 -d 6 -p tcp -e 40 -c 2 -i 1 -a 2 -x {2.0 9.1 -1 ------- null}
r -t 0.13048 -s 5 -d 6 -p tcp -e 40 -c 3 -i 2 -a 3 -x {3.0 9.2 0 ------- null}
+ -t 0.13048 -s 6 -d 7 -p tcp -e 40 -c 3 -i 2 -a 3 -x {3.0 9.2 0 ------- null}
- -t 0.13048 -s 6 -d 7 -p tcp -e 40 -c 3 -i 2 -a 3 -x {3.0 9.2 0 ------- null}
h -t 0.13048 -s 6 -d 7 -p tcp -e 40 -c 3 -i 2 -a 3 -x {3.0 9.2 -1 ------- null}
r -t 0.14064 -s 3 -d 4 -p tcp -e 40 -c 1 -i 0 -a 1 -x {0.0 9.0 0 ------- null}
+ -t 0.14064 -s 4 -d 5 -p tcp -e 40 -c 1 -i 0 -a 1 -x {0.0 9.0 0 ------- null}
- -t 0.14064 -s 4 -d 5 -p tcp -e 40 -c 1 -i 0 -a 1 -x {0.0 9.0 0 ------- null}
h -t 0.14064 -s 4 -d 5 -p tcp -e 40 -c 1 -i 0 -a 1 -x {0.0 9.0 -1 ------- null}
r -t 0.14064 -s 5 -d 6 -p tcp -e 40 -c 2 -i 1 -a 2 -x {2.0 9.1 0 ------- null}
+ -t 0.14064 -s 6 -d 7 -p tcp -e 40 -c 2 -i 1 -a 2 -x {2.0 9.1 0 ------- null}
- -t 0.14064 -s 6 -d 7 -p tcp -e 40 -c 2 -i 1 -a 2 -x {2.0 9.1 0 ------- null}
h -t 0.14064 -s 6 -d 7 -p tcp -e 40 -c 2 -i 1 -a 2 -x {2.0 9.1 -1 ------- null}
r -t 0.14064 -s 6 -d 7 -p tcp -e 40 -c 3 -i 2 -a 3 -x {3.0 9.2 0 ------- null}
+ -t 0.14064 -s 7 -d 8 -p tcp -e 40 -c 3 -i 2 -a 3 -x {3.0 9.2 0 ------- null}
- -t 0.14064 -s 7 -d 8 -p tcp -e 40 -c 3 -i 2 -a 3 -x {3.0 9.2 0 ------- null}
h -t 0.14064 -s 7 -d 8 -p tcp -e 40 -c 3 -i 2 -a 3 -x {3.0 9.2 -1 ------- null}
r -t 0.1508 -s 4 -d 5 -p tcp -e 40 -c 1 -i 0 -a 1 -x {0.0 9.0 0 ------- null}
+ -t 0.1508 -s 5 -d 6 -p tcp -e 40 -c 1 -i 0 -a 1 -x {0.0 9.0 0 ------- null}
- -t 0.1508 -s 5 -d 6 -p tcp -e 40 -c 1 -i 0 -a 1 -x {0.0 9.0 0 ------- null}
h -t 0.1508 -s 5 -d 6 -p tcp -e 40 -c 1 -i 0 -a 1 -x {0.0 9.0 -1 ------- null}
r -t 0.1508 -s 6 -d 7 -p tcp -e 40 -c 2 -i 1 -a 2 -x {2.0 9.1 0 ------- null}
+ -t 0.1508 -s 7 -d 8 -p tcp -e 40 -c 2 -i 1 -a 2 -x {2.0 9.1 0 ------- null}
- -t 0.1508 -s 7 -d 8 -p tcp -e 40 -c 2 -i 1 -a 2 -x {2.0 9.1 0 ------- null}
h -t 0.1508 -s 7 -d 8 -p tcp -e 40 -c 2 -i 1 -a 2 -x {2.0 9.1 -1 ------- null}
r -t 0.1508 -s 7 -d 8 -p tcp -e 40 -c 3 -i 2 -a 3 -x {3.0 9.2 0 ------- null}
+ -t 0.1508 -s 8 -d 9 -p tcp -e 40 -c 3 -i 2 -a 3 -x {3.0 9.2 0 ------- null}
- -t 0.1508 -s 8 -d 9 -p tcp -e 40 -c 3 -i 2 -a 3 -x {3.0 9.2 0 ------- null}
h -t 0.1508 -s 8 -d 9 -p tcp -e 40 -c 3 -i 2 -a 3 -x {3.0 9.2 -1 ------- null}
r -t 0.16096 -s 5 -d 6 -p tcp -e 40 -c 1 -i 0 -a 1 -x {0.0 9.0 0 ------- null}
+ -t 0.16096 -s 6 -d 7 -p tcp -e 40 -c 1 -i 0 -a 1 -x {0.0 9.0 0 ------- null}
- -t 0.16096 -s 6 -d 7 -p tcp -e 40 -c 1 -i 0 -a 1 -x {0.0 9.0 0 ------- null}
h -t 0.16096 -s 6 -d 7 -p tcp -e 40 -c 1 -i 0 -a 1 -x {0.0 9.0 -1 ------- null}
r -t 0.16096 -s 7 -d 8 -p tcp -e 40 -c 2 -i 1 -a 2 -x {2.0 9.1 0 ------- null}
+ -t 0.16096 -s 8 -d 9 -p tcp -e 40 -c 2 -i 1 -a 2 -x {2.0 9.1 0 ------- null}
- -t 0.16096 -s 8 -d 9 -p tcp -e 40 -c 2 -i 1 -a 2 -x {2.0 9.1 0 ------- null}
h -t 0.16096 -s 8 -d 9 -p tcp -e 40 -c 2 -i 1 -a 2 -x {2.0 9.1 -1 ------- null}
r -t 0.17112 -s 8 -d 9 -p tcp -e 40 -c 3 -i 2 -a 3 -x {3.0 9.2 0 ------- null}
+ -t 0.17112 -s 9 -d 8 -p ack -e 40 -c 3 -i 3 -a 3 -x {9.2 3.0 0 ------- null}
- -t 0.17112 -s 9 -d 8 -p ack -e 40 -c 3 -i 3 -a 3 -x {9.2 3.0 0 ------- null}
h -t 0.17112 -s 9 -d 8 -p ack -e 40 -c 3 -i 3 -a 3 -x {9.2 3.0 -1 ------- null}
r -t 0.17112 -s 6 -d 7 -p tcp -e 40 -c 1 -i 0 -a 1 -x {0.0 9.0 0 ------- null}
+ -t 0.17112 -s 7 -d 8 -p tcp -e 40 -c 1 -i 0 -a 1 -x {0.0 9.0 0 ------- null}
- -t 0.17112 -s 7 -d 8 -p tcp -e 40 -c 1 -i 0 -a 1 -x {0.0 9.0 0 ------- null}
h -t 0.17112 -s 7 -d 8 -p tcp -e 40 -c 1 -i 0 -a 1 -x {0.0 9.0 -1 ------- null}
r -t 0.18128 -s 8 -d 9 -p tcp -e 40 -c 2 -i 1 -a 2 -x {2.0 9.1 0 ------- null}
+ -t 0.18128 -s 9 -d 8 -p ack -e 40 -c 2 -i 4 -a 2 -x {9.1 2.0 0 ------- null}
- -t 0.18128 -s 9 -d 8 -p ack -e 40 -c 2 -i 4 -a 2 -x {9.1 2.0 0 ------- null}
h -t 0.18128 -s 9 -d 8 -p ack -e 40 -c 2 -i 4 -a 2 -x {9.1 2.0 -1 ------- null}
r -t 0.18128 -s 7 -d 8 -p tcp -e 40 -c 1 -i 0 -a 1 -x {0.0 9.0 0 ------- null}
+ -t 0.18128 -s 8 -d 9 -p tcp -e 40 -c 1 -i 0 -a 1 -x {0.0 9.0 0 ------- null}
- -t 0.18128 -s 8 -d 9 -p tcp -e 40 -c 1 -i 0 -a 1 -x {0.0 9.0 0 ------- null}
h -t 0.18128 -s 8 -d 9 -p tcp -e 40 -c 1 -i 0 -a 1 -x {0.0 9.0 -1 ------- null}
r -t 0.19144 -s 9 -d 8 -p ack -e 40 -c 3 -i 3 -a 3 -x {9.2 3.0 0 ------- null}
+ -t 0.19144 -s 8 -d 7 -p ack -e 40 -c 3 -i 3 -a 3 -x {9.2 3.0 0 ------- null}
- -t 0.19144 -s 8 -d 7 -p ack -e 40 -c 3 -i 3 -a 3 -x {9.2 3.0 0 ------- null}
h -t 0.19144 -s 8 -d 7 -p ack -e 40 -c 3 -i 3 -a 3 -x {9.2 3.0 -1 ------- null}
r -t 0.2016 -s 9 -d 8 -p ack -e 40 -c 2 -i 4 -a 2 -x {9.1 2.0 0 ------- null}
+ -t 0.2016 -s 8 -d 7 -p ack -e 40 -c 2 -i 4 -a 2 -x {9.1 2.0 0 ------- null}
- -t 0.2016 -s 8 -d 7 -p ack -e 40 -c 2 -i 4 -a 2 -x {9.1 2.0 0 ------- null}
h -t 0.2016 -s 8 -d 7 -p ack -e 40 -c 2 -i 4 -a 2 -x {9.1 2.0 -1 ------- null}
r -t 0.2016 -s 8 -d 9 -p tcp -e 40 -c 1 -i 0 -a 1 -x {0.0 9.0 0 ------- null}
+ -t 0.2016 -s 9 -d 8 -p ack -e 40 -c 1 -i 5 -a 1 -x {9.0 0.0 0 ------- null}
- -t 0.2016 -s 9 -d 8 -p ack -e 40 -c 1 -i 5 -a 1 -x {9.0 0.0 0 ------- null}
h -t 0.2016 -s 9 -d 8 -p ack -e 40 -c 1 -i 5 -a 1 -x {9.0 0.0 -1 ------- null}
r -t 0.2016 -s 8 -d 7 -p ack -e 40 -c 3 -i 3 -a 3 -x {9.2 3.0 0 ------- null}
+ -t 0.2016 -s 7 -d 6 -p ack -e 40 -c 3 -i 3 -a 3 -x {9.2 3.0 0 ------- null}
- -t 0.2016 -s 7 -d 6 -p ack -e 40 -c 3 -i 3 -a 3 -x {9.2 3.0 0 ------- null}
h -t 0.2016 -s 7 -d 6 -p ack -e 40 -c 3 -i 3 -a 3 -x {9.2 3.0 -1 ------- null}
r -t 0.21176 -s 8 -d 7 -p ack -e 40 -c 2 -i 4 -a 2 -x {9.1 2.0 0 ------- null}
+ -t 0.21176 -s 7 -d 6 -p ack -e 40 -c 2 -i 4 -a 2 -x {9.1 2.0 0 ------- null}
- -t 0.21176 -s 7 -d 6 -p ack -e 40 -c 2 -i 4 -a 2 -x {9.1 2.0 0 ------- null}
h -t 0.21176 -s 7 -d 6 -p ack -e 40 -c 2 -i 4 -a 2 -x {9.1 2.0 -1 ------- null}
r -t 0.21176 -s 7 -d 6 -p ack -e 40 -c 3 -i 3 -a 3 -x {9.2 3.0 0 ------- null}
+ -t 0.21176 -s 6 -d 5 -p ack -e 40 -c 3 -i 3 -a 3 -x {9.2 3.0 0 ------- null}
- -t 0.21176 -s 6 -d 5 -p ack -e 40 -c 3 -i 3 -a 3 -x {9.2 3.0 0 ------- null}
h -t 0.21176 -s 6 -d 5 -p ack -e 40 -c 3 -i 3 -a 3 -x {9.2 3.0 -1 ------- null}
r -t 0.22192 -s 9 -d 8 -p ack -e 40 -c 1 -i 5 -a 1 -x {9.0 0.0 0 ------- null}
+ -t 0.22192 -s 8 -d 7 -p ack -e 40 -c 1 -i 5 -a 1 -x {9.0 0.0 0 ------- null}
- -t 0.22192 -s 8 -d 7 -p ack -e 40 -c 1 -i 5 -a 1 -x {9.0 0.0 0 ------- null}
h -t 0.22192 -s 8 -d 7 -p ack -e 40 -c 1 -i 5 -a 1 -x {9.0 0.0 -1 ------- null}
r -t 0.22192 -s 7 -d 6 -p ack -e 40 -c 2 -i 4 -a 2 -x {9.1 2.0 0 ------- null}
+ -t 0.22192 -s 6 -d 5 -p ack -e 40 -c 2 -i 4 -a 2 -x {9.1 2.0 0 ------- null}
- -t 0.22192 -s 6 -d 5 -p ack -e 40 -c 2 -i 4 -a 2 -x {9.1 2.0 0 ------- null}
h -t 0.22192 -s 6 -d 5 -p ack -e 40 -c 2 -i 4 -a 2 -x {9.1 2.0 -1 ------- null}
r -t 0.22192 -s 6 -d 5 -p ack -e 40 -c 3 -i 3 -a 3 -x {9.2 3.0 0 ------- null}
+ -t 0.22192 -s 5 -d 4 -p ack -e 40 -c 3 -i 3 -a 3 -x {9.2 3.0 0 ------- null}
- -t 0.22192 -s 5 -d 4 -p ack -e 40 -c 3 -i 3 -a 3 -x {9.2 3.0 0 ------- null}
h -t 0.22192 -s 5 -d 4 -p ack -e 40 -c 3 -i 3 -a 3 -x {9.2 3.0 -1 ------- null}
r -t 0.23208 -s 8 -d 7 -p ack -e 40 -c 1 -i 5 -a 1 -x {9.0 0.0 0 ------- null}
+ -t 0.23208 -s 7 -d 6 -p ack -e 40 -c 1 -i 5 -a 1 -x {9.0 0.0 0 ------- null}
- -t 0.23208 -s 7 -d 6 -p ack -e 40 -c 1 -i 5 -a 1 -x {9.0 0.0 0 ------- null}
h -t 0.23208 -s 7 -d 6 -p ack -e 40 -c 1 -i 5 -a 1 -x {9.0 0.0 -1 ------- null}
r -t 0.23208 -s 6 -d 5 -p ack -e 40 -c 2 -i 4 -a 2 -x {9.1 2.0 0 ------- null}
+ -t 0.23208 -s 5 -d 4 -p ack -e 40 -c 2 -i 4 -a 2 -x {9.1 2.0 0 ------- null}
- -t 0.23208 -s 5 -d 4 -p ack -e 40 -c 2 -i 4 -a 2 -x {9.1 2.0 0 ------- null}
h -t 0.23208 -s 5 -d 4 -p ack -e 40 -c 2 -i 4 -a 2 -x {9.1 2.0 -1 ------- null}
r -t 0.23208 -s 5 -d 4 -p ack -e 40 -c 3 -i 3 -a 3 -x {9.2 3.0 0 ------- null}
+ -t 0.23208 -s 4 -d 3 -p ack -e 40 -c 3 -i 3 -a 3 -x {9.2 3.0 0 ------- null}
- -t 0.23208 -s 4 -d 3 -p ack -e 40 -c 3 -i 3 -a 3 -x {9.2 3.0 0 ------- null}
h -t 0.23208 -s 4 -d 3 -p ack -e 40 -c 3 -i 3 -a 3 -x {9.2 3.0 -1 ------- null}
r -t 0.24224 -s 7 -d 6 -p ack -e 40 -c 1 -i 5 -a 1 -x {9.0 0.0 0 ------- null}
+ -t 0.24224 -s 6 -d 5 -p ack -e 40 -c 1 -i 5 -a 1 -x {9.0 0.0 0 ------- null}
- -t 0.24224 -s 6 -d 5 -p ack -e 40 -c 1 -i 5 -a 1 -x {9.0 0.0 0 ------- null}
h -t 0.24224 -s 6 -d 5 -p ack -e 40 -c 1 -i 5 -a 1 -x {9.0 0.0 -1 ------- null}
r -t 0.24224 -s 5 -d 4 -p ack -e 40 -c 2 -i 4 -a 2 -x {9.1 2.0 0 ------- null}
+ -t 0.24224 -s 4 -d 3 -p ack -e 40 -c 2 -i 4 -a 2 -x {9.1 2.0 0 ------- null}
- -t 0.24224 -s 4 -d 3 -p ack -e 40 -c 2 -i 4 -a 2 -x {9.1 2.0 0 ------- null}
h -t 0.24224 -s 4 -d 3 -p ack -e 40 -c 2 -i 4 -a 2 -x {9.1 2.0 -1 ------- null}
r -t 0.24224 -s 4 -d 3 -p ack -e 40 -c 3 -i 3 -a 3 -x {9.2 3.0 0 ------- null}
+ -t 0.24224 -s 3 -d 4 -p tcp -e 1040 -c 3 -i 6 -a 3 -x {3.0 9.2 1 ------- null}
- -t 0.24224 -s 3 -d 4 -p tcp -e 1040 -c 3 -i 6 -a 3 -x {3.0 9.2 1 ------- null}
h -t 0.24224 -s 3 -d 4 -p tcp -e 1040 -c 3 -i 6 -a 3 -x {3.0 9.2 -1 ------- null}
+ -t 0.24224 -s 3 -d 4 -p tcp -e 1040 -c 3 -i 7 -a 3 -x {3.0 9.2 2 ------- null}
- -t 0.2464 -s 3 -d 4 -p tcp -e 1040 -c 3 -i 7 -a 3 -x {3.0 9.2 2 ------- null}
h -t 0.2464 -s 3 -d 4 -p tcp -e 1040 -c 3 -i 7 -a 3 -x {3.0 9.2 -1 ------- null}
r -t 0.2524 -s 6 -d 5 -p ack -e 40 -c 1 -i 5 -a 1 -x {9.0 0.0 0 ------- null}
+ -t 0.2524 -s 5 -d 4 -p ack -e 40 -c 1 -i 5 -a 1 -x {9.0 0.0 0 ------- null}
- -t 0.2524 -s 5 -d 4 -p ack -e 40 -c 1 -i 5 -a 1 -x {9.0 0.0 0 ------- null}
h -t 0.2524 -s 5 -d 4 -p ack -e 40 -c 1 -i 5 -a 1 -x {9.0 0.0 -1 ------- null}
r -t 0.2524 -s 4 -d 3 -p ack -e 40 -c 2 -i 4 -a 2 -x {9.1 2.0 0 ------- null}
+ -t 0.2524 -s 3 -d 2 -p ack -e 40 -c 2 -i 4 -a 2 -x {9.1 2.0 0 ------- null}
- -t 0.2524 -s 3 -d 2 -p ack -e 40 -c 2 -i 4 -a 2 -x {9.1 2.0 0 ------- null}
h -t 0.2524 -s 3 -d 2 -p ack -e 40 -c 2 -i 4 -a 2 -x {9.1 2.0 -1 ------- null}
r -t 0.2564 -s 3 -d 4 -p tcp -e 1040 -c 3 -i 6 -a 3 -x {3.0 9.2 1 ------- null}
+ -t 0.2564 -s 4 -d 5 -p tcp -e 1040 -c 3 -i 6 -a 3 -x {3.0 9.2 1 ------- null}
- -t 0.2564 -s 4 -d 5 -p tcp -e 1040 -c 3 -i 6 -a 3 -x {3.0 9.2 1 ------- null}
h -t 0.2564 -s 4 -d 5 -p tcp -e 1040 -c 3 -i 6 -a 3 -x {3.0 9.2 -1 ------- null}
r -t 0.26056 -s 3 -d 4 -p tcp -e 1040 -c 3 -i 7 -a 3 -x {3.0 9.2 2 ------- null}
+ -t 0.26056 -s 4 -d 5 -p tcp -e 1040 -c 3 -i 7 -a 3 -x {3.0 9.2 2 ------- null}
- -t 0.26056 -s 4 -d 5 -p tcp -e 1040 -c 3 -i 7 -a 3 -x {3.0 9.2 2 ------- null}
h -t 0.26056 -s 4 -d 5 -p tcp -e 1040 -c 3 -i 7 -a 3 -x {3.0 9.2 -1 ------- null}
r -t 0.26256 -s 5 -d 4 -p ack -e 40 -c 1 -i 5 -a 1 -x {9.0 0.0 0 ------- null}
+ -t 0.26256 -s 4 -d 3 -p ack -e 40 -c 1 -i 5 -a 1 -x {9.0 0.0 0 ------- null}
- -t 0.26256 -s 4 -d 3 -p ack -e 40 -c 1 -i 5 -a 1 -x {9.0 0.0 0 ------- null}
h -t 0.26256 -s 4 -d 3 -p ack -e 40 -c 1 -i 5 -a 1 -x {9.0 0.0 -1 ------- null}
r -t 0.26256 -s 3 -d 2 -p ack -e 40 -c 2 -i 4 -a 2 -x {9.1 2.0 0 ------- null}
+ -t 0.26256 -s 2 -d 3 -p tcp -e 1040 -c 2 -i 8 -a 2 -x {2.0 9.1 1 ------- null}
- -t 0.26256 -s 2 -d 3 -p tcp -e 1040 -c 2 -i 8 -a 2 -x {2.0 9.1 1 ------- null}
h -t 0.26256 -s 2 -d 3 -p tcp -e 1040 -c 2 -i 8 -a 2 -x {2.0 9.1 -1 ------- null}
+ -t 0.26256 -s 2 -d 3 -p tcp -e 1040 -c 2 -i 9 -a 2 -x {2.0 9.1 2 ------- null}
- -t 0.26672 -s 2 -d 3 -p tcp -e 1040 -c 2 -i 9 -a 2 -x {2.0 9.1 2 ------- null}
h -t 0.26672 -s 2 -d 3 -p tcp -e 1040 -c 2 -i 9 -a 2 -x {2.0 9.1 -1 ------- null}
r -t 0.27056 -s 4 -d 5 -p tcp -e 1040 -c 3 -i 6 -a 3 -x {3.0 9.2 1 ------- null}
+ -t 0.27056 -s 5 -d 6 -p tcp -e 1040 -c 3 -i 6 -a 3 -x {3.0 9.2 1 ------- null}
- -t 0.27056 -s 5 -d 6 -p tcp -e 1040 -c 3 -i 6 -a 3 -x {3.0 9.2 1 ------- null}
h -t 0.27056 -s 5 -d 6 -p tcp -e 1040 -c 3 -i 6 -a 3 -x {3.0 9.2 -1 ------- null}
r -t 0.27272 -s 4 -d 3 -p ack -e 40 -c 1 -i 5 -a 1 -x {9.0 0.0 0 ------- null}
+ -t 0.27272 -s 3 -d 2 -p ack -e 40 -c 1 -i 5 -a 1 -x {9.0 0.0 0 ------- null}
- -t 0.27272 -s 3 -d 2 -p ack -e 40 -c 1 -i 5 -a 1 -x {9.0 0.0 0 ------- null}
h -t 0.27272 -s 3 -d 2 -p ack -e 40 -c 1 -i 5 -a 1 -x {9.0 0.0 -1 ------- null}
r -t 0.27472 -s 4 -d 5 -p tcp -e 1040 -c 3 -i 7 -a 3 -x {3.0 9.2 2 ------- null}
+ -t 0.27472 -s 5 -d 6 -p tcp -e 1040 -c 3 -i 7 -a 3 -x {3.0 9.2 2 ------- null}
- -t 0.27472 -s 5 -d 6 -p tcp -e 1040 -c 3 -i 7 -a 3 -x {3.0 9.2 2 ------- null}
h -t 0.27472 -s 5 -d 6 -p tcp -e 1040 -c 3 -i 7 -a 3 -x {3.0 9.2 -1 ------- null}
r -t 0.27672 -s 2 -d 3 -p tcp -e 1040 -c 2 -i 8 -a 2 -x {2.0 9.1 1 ------- null}
+ -t 0.27672 -s 3 -d 4 -p tcp -e 1040 -c 2 -i 8 -a 2 -x {2.0 9.1 1 ------- null}
- -t 0.27672 -s 3 -d 4 -p tcp -e 1040 -c 2 -i 8 -a 2 -x {2.0 9.1 1 ------- null}
h -t 0.27672 -s 3 -d 4 -p tcp -e 1040 -c 2 -i 8 -a 2 -x {2.0 9.1 -1 ------- null}
r -t 0.28088 -s 2 -d 3 -p tcp -e 1040 -c 2 -i 9 -a 2 -x {2.0 9.1 2 ------- null}
+ -t 0.28088 -s 3 -d 4 -p tcp -e 1040 -c 2 -i 9 -a 2 -x {2.0 9.1 2 ------- null}
- -t 0.28088 -s 3 -d 4 -p tcp -e 1040 -c 2 -i 9 -a 2 -x {2.0 9.1 2 ------- null}
h -t 0.28088 -s 3 -d 4 -p tcp -e 1040 -c 2 -i 9 -a 2 -x {2.0 9.1 -1 ------- null}
r -t 0.28288 -s 3 -d 2 -p ack -e 40 -c 1 -i 5 -a 1 -x {9.0 0.0 0 ------- null}
+ -t 0.28288 -s 2 -d 1 -p ack -e 40 -c 1 -i 5 -a 1 -x {9.0 0.0 0 ------- null}
- -t 0.28288 -s 2 -d 1 -p ack -e 40 -c 1 -i 5 -a 1 -x {9.0 0.0 0 ------- null}
h -t 0.28288 -s 2 -d 1 -p ack -e 40 -c 1 -i 5 -a 1 -x {9.0 0.0 -1 ------- null}
r -t 0.28472 -s 5 -d 6 -p tcp -e 1040 -c 3 -i 6 -a 3 -x {3.0 9.2 1 ------- null}
+ -t 0.28472 -s 6 -d 7 -p tcp -e 1040 -c 3 -i 6 -a 3 -x {3.0 9.2 1 ------- null}
- -t 0.28472 -s 6 -d 7 -p tcp -e 1040 -c 3 -i 6 -a 3 -x {3.0 9.2 1 ------- null}
h -t 0.28472 -s 6 -d 7 -p tcp -e 1040 -c 3 -i 6 -a 3 -x {3.0 9.2 -1 ------- null}
r -t 0.28888 -s 5 -d 6 -p tcp -e 1040 -c 3 -i 7 -a 3 -x {3.0 9.2 2 ------- null}
+ -t 0.28888 -s 6 -d 7 -p tcp -e 1040 -c 3 -i 7 -a 3 -x {3.0 9.2 2 ------- null}
- -t 0.28888 -s 6 -d 7 -p tcp -e 1040 -c 3 -i 7 -a 3 -x {3.0 9.2 2 ------- null}
h -t 0.28888 -s 6 -d 7 -p tcp -e 1040 -c 3 -i 7 -a 3 -x {3.0 9.2 -1 ------- null}
r -t 0.29088 -s 3 -d 4 -p tcp -e 1040 -c 2 -i 8 -a 2 -x {2.0 9.1 1 ------- null}
+ -t 0.29088 -s 4 -d 5 -p tcp -e 1040 -c 2 -i 8 -a 2 -x {2.0 9.1 1 ------- null}
- -t 0.29088 -s 4 -d 5 -p tcp -e 1040 -c 2 -i 8 -a 2 -x {2.0 9.1 1 ------- null}
h -t 0.29088 -s 4 -d 5 -p tcp -e 1040 -c 2 -i 8 -a 2 -x {2.0 9.1 -1 ------- null}
r -t 0.29304 -s 2 -d 1 -p ack -e 40 -c 1 -i 5 -a 1 -x {9.0 0.0 0 ------- null}
+ -t 0.29304 -s 1 -d 0 -p ack -e 40 -c 1 -i 5 -a 1 -x {9.0 0.0 0 ------- null}
- -t 0.29304 -s 1 -d 0 -p ack -e 40 -c 1 -i 5 -a 1 -x {9.0 0.0 0 ------- null}
h -t 0.29304 -s 1 -d 0 -p ack -e 40 -c 1 -i 5 -a 1 -x {9.0 0.0 -1 ------- null}
r -t 0.29504 -s 3 -d 4 -p tcp -e 1040 -c 2 -i 9 -a 2 -x {2.0 9.1 2 ------- null}
+ -t 0.29504 -s 4 -d 5 -p tcp -e 1040 -c 2 -i 9 -a 2 -x {2.0 9.1 2 ------- null}
- -t 0.29504 -s 4 -d 5 -p tcp -e 1040 -c 2 -i 9 -a 2 -x {2.0 9.1 2 ------- null}
h -t 0.29504 -s 4 -d 5 -p tcp -e 1040 -c 2 -i 9 -a 2 -x {2.0 9.1 -1 ------- null}
r -t 0.29888 -s 6 -d 7 -p tcp -e 1040 -c 3 -i 6 -a 3 -x {3.0 9.2 1 ------- null}
+ -t 0.29888 -s 7 -d 8 -p tcp -e 1040 -c 3 -i 6 -a 3 -x {3.0 9.2 1 ------- null}
- -t 0.29888 -s 7 -d 8 -p tcp -e 1040 -c 3 -i 6 -a 3 -x {3.0 9.2 1 ------- null}
h -t 0.29888 -s 7 -d 8 -p tcp -e 1040 -c 3 -i 6 -a 3 -x {3.0 9.2 -1 ------- null}
r -t 0.30304 -s 6 -d 7 -p tcp -e 1040 -c 3 -i 7 -a 3 -x {3.0 9.2 2 ------- null}
+ -t 0.30304 -s 7 -d 8 -p tcp -e 1040 -c 3 -i 7 -a 3 -x {3.0 9.2 2 ------- null}
- -t 0.30304 -s 7 -d 8 -p tcp -e 1040 -c 3 -i 7 -a 3 -x {3.0 9.2 2 ------- null}
h -t 0.30304 -s 7 -d 8 -p tcp -e 1040 -c 3 -i 7 -a 3 -x {3.0 9.2 -1 ------- null}
r -t 0.3032 -s 1 -d 0 -p ack -e 40 -c 1 -i 5 -a 1 -x {9.0 0.0 0 ------- null}
+ -t 0.3032 -s 0 -d 1 -p tcp -e 1040 -c 1 -i 10 -a 1 -x {0.0 9.0 1 ------- null}
- -t 0.3032 -s 0 -d 1 -p tcp -e 1040 -c 1 -i 10 -a 1 -x {0.0 9.0 1 ------- null}
h -t 0.3032 -s 0 -d 1 -p tcp -e 1040 -c 1 -i 10 -a 1 -x {0.0 9.0 -1 ------- null}
+ -t 0.3032 -s 0 -d 1 -p tcp -e 1040 -c 1 -i 11 -a 1 -x {0.0 9.0 2 ------- null}
r -t 0.30504 -s 4 -d 5 -p tcp -e 1040 -c 2 -i 8 -a 2 -x {2.0 9.1 1 ------- null}
+ -t 0.30504 -s 5 -d 6 -p tcp -e 1040 -c 2 -i 8 -a 2 -x {2.0 9.1 1 ------- null}
- -t 0.30504 -s 5 -d 6 -p tcp -e 1040 -c 2 -i 8 -a 2 -x {2.0 9.1 1 ------- null}
h -t 0.30504 -s 5 -d 6 -p tcp -e 1040 -c 2 -i 8 -a 2 -x {2.0 9.1 -1 ------- null}
- -t 0.30736 -s 0 -d 1 -p tcp -e 1040 -c 1 -i 11 -a 1 -x {0.0 9.0 2 ------- null}
h -t 0.30736 -s 0 -d 1 -p tcp -e 1040 -c 1 -i 11 -a 1 -x {0.0 9.0 -1 ------- null}
r -t 0.3092 -s 4 -d 5 -p tcp -e 1040 -c 2 -i 9 -a 2 -x {2.0 9.1 2 ------- null}
+ -t 0.3092 -s 5 -d 6 -p tcp -e 1040 -c 2 -i 9 -a 2 -x {2.0 9.1 2 ------- null}
- -t 0.3092 -s 5 -d 6 -p tcp -e 1040 -c 2 -i 9 -a 2 -x {2.0 9.1 2 ------- null}
h -t 0.3092 -s 5 -d 6 -p tcp -e 1040 -c 2 -i 9 -a 2 -x {2.0 9.1 -1 ------- null}
r -t 0.31304 -s 7 -d 8 -p tcp -e 1040 -c 3 -i 6 -a 3 -x {3.0 9.2 1 ------- null}
+ -t 0.31304 -s 8 -d 9 -p tcp -e 1040 -c 3 -i 6 -a 3 -x {3.0 9.2 1 ------- null}
- -t 0.31304 -s 8 -d 9 -p tcp -e 1040 -c 3 -i 6 -a 3 -x {3.0 9.2 1 ------- null}
h -t 0.31304 -s 8 -d 9 -p tcp -e 1040 -c 3 -i 6 -a 3 -x {3.0 9.2 -1 ------- null}
r -t 0.3172 -s 7 -d 8 -p tcp -e 1040 -c 3 -i 7 -a 3 -x {3.0 9.2 2 ------- null}
+ -t 0.3172 -s 8 -d 9 -p tcp -e 1040 -c 3 -i 7 -a 3 -x {3.0 9.2 2 ------- null}
r -t 0.31736 -s 0 -d 1 -p tcp -e 1040 -c 1 -i 10 -a 1 -x {0.0 9.0 1 ------- null}
+ -t 0.31736 -s 1 -d 2 -p tcp -e 1040 -c 1 -i 10 -a 1 -x {0.0 9.0 1 ------- null}
- -t 0.31736 -s 1 -d 2 -p tcp -e 1040 -c 1 -i 10 -a 1 -x {0.0 9.0 1 ------- null}
h -t 0.31736 -s 1 -d 2 -p tcp -e 1040 -c 1 -i 10 -a 1 -x {0.0 9.0 -1 ------- null}
r -t 0.3192 -s 5 -d 6 -p tcp -e 1040 -c 2 -i 8 -a 2 -x {2.0 9.1 1 ------- null}
+ -t 0.3192 -s 6 -d 7 -p tcp -e 1040 -c 2 -i 8 -a 2 -x {2.0 9.1 1 ------- null}
- -t 0.3192 -s 6 -d 7 -p tcp -e 1040 -c 2 -i 8 -a 2 -x {2.0 9.1 1 ------- null}
h -t 0.3192 -s 6 -d 7 -p tcp -e 1040 -c 2 -i 8 -a 2 -x {2.0 9.1 -1 ------- null}
- -t 0.32136 -s 8 -d 9 -p tcp -e 1040 -c 3 -i 7 -a 3 -x {3.0 9.2 2 ------- null}
h -t 0.32136 -s 8 -d 9 -p tcp -e 1040 -c 3 -i 7 -a 3 -x {3.0 9.2 -1 ------- null}
r -t 0.32152 -s 0 -d 1 -p tcp -e 1040 -c 1 -i 11 -a 1 -x {0.0 9.0 2 ------- null}
+ -t 0.32152 -s 1 -d 2 -p tcp -e 1040 -c 1 -i 11 -a 1 -x {0.0 9.0 2 ------- null}
- -t 0.32152 -s 1 -d 2 -p tcp -e 1040 -c 1 -i 11 -a 1 -x {0.0 9.0 2 ------- null}
h -t 0.32152 -s 1 -d 2 -p tcp -e 1040 -c 1 -i 11 -a 1 -x {0.0 9.0 -1 ------- null}
r -t 0.32336 -s 5 -d 6 -p tcp -e 1040 -c 2 -i 9 -a 2 -x {2.0 9.1 2 ------- null}
+ -t 0.32336 -s 6 -d 7 -p tcp -e 1040 -c 2 -i 9 -a 2 -x {2.0 9.1 2 ------- null}
- -t 0.32336 -s 6 -d 7 -p tcp -e 1040 -c 2 -i 9 -a 2 -x {2.0 9.1 2 ------- null}
h -t 0.32336 -s 6 -d 7 -p tcp -e 1040 -c 2 -i 9 -a 2 -x {2.0 9.1 -1 ------- null}
r -t 0.33152 -s 1 -d 2 -p tcp -e 1040 -c 1 -i 10 -a 1 -x {0.0 9.0 1 ------- null}
+ -t 0.33152 -s 2 -d 3 -p tcp -e 1040 -c 1 -i 10 -a 1 -x {0.0 9.0 1 ------- null}
- -t 0.33152 -s 2 -d 3 -p tcp -e 1040 -c 1 -i 10 -a 1 -x {0.0 9.0 1 ------- null}
h -t 0.33152 -s 2 -d 3 -p tcp -e 1040 -c 1 -i 10 -a 1 -x {0.0 9.0 -1 ------- null}
r -t 0.33336 -s 6 -d 7 -p tcp -e 1040 -c 2 -i 8 -a 2 -x {2.0 9.1 1 ------- null}
+ -t 0.33336 -s 7 -d 8 -p tcp -e 1040 -c 2 -i 8 -a 2 -x {2.0 9.1 1 ------- null}
- -t 0.33336 -s 7 -d 8 -p tcp -e 1040 -c 2 -i 8 -a 2 -x {2.0 9.1 1 ------- null}
h -t 0.33336 -s 7 -d 8 -p tcp -e 1040 -c 2 -i 8 -a 2 -x {2.0 9.1 -1 ------- null}
r -t 0.33568 -s 1 -d 2 -p tcp -e 1040 -c 1 -i 11 -a 1 -x {0.0 9.0 2 ------- null}
+ -t 0.33568 -s 2 -d 3 -p tcp -e 1040 -c 1 -i 11 -a 1 -x {0.0 9.0 2 ------- null}
- -t 0.33568 -s 2 -d 3 -p tcp -e 1040 -c 1 -i 11 -a 1 -x {0.0 9.0 2 ------- null}
h -t 0.33568 -s 2 -d 3 -p tcp -e 1040 -c 1 -i 11 -a 1 -x {0.0 9.0 -1 ------- null}
r -t 0.33752 -s 6 -d 7 -p tcp -e 1040 -c 2 -i 9 -a 2 -x {2.0 9.1 2 ------- null}
+ -t 0.33752 -s 7 -d 8 -p tcp -e 1040 -c 2 -i 9 -a 2 -x {2.0 9.1 2 ------- null}
- -t 0.33752 -s 7 -d 8 -p tcp -e 1040 -c 2 -i 9 -a 2 -x {2.0 9.1 2 ------- null}
h -t 0.33752 -s 7 -d 8 -p tcp -e 1040 -c 2 -i 9 -a 2 -x {2.0 9.1 -1 ------- null}
r -t 0.34136 -s 8 -d 9 -p tcp -e 1040 -c 3 -i 6 -a 3 -x {3.0 9.2 1 ------- null}
+ -t 0.34136 -s 9 -d 8 -p ack -e 40 -c 3 -i 12 -a 3 -x {9.2 3.0 1 ------- null}
- -t 0.34136 -s 9 -d 8 -p ack -e 40 -c 3 -i 12 -a 3 -x {9.2 3.0 1 ------- null}
h -t 0.34136 -s 9 -d 8 -p ack -e 40 -c 3 -i 12 -a 3 -x {9.2 3.0 -1 ------- null}
r -t 0.34568 -s 2 -d 3 -p tcp -e 1040 -c 1 -i 10 -a 1 -x {0.0 9.0 1 ------- null}
+ -t 0.34568 -s 3 -d 4 -p tcp -e 1040 -c 1 -i 10 -a 1 -x {0.0 9.0 1 ------- null}
- -t 0.34568 -s 3 -d 4 -p tcp -e 1040 -c 1 -i 10 -a 1 -x {0.0 9.0 1 ------- null}
h -t 0.34568 -s 3 -d 4 -p tcp -e 1040 -c 1 -i 10 -a 1 -x {0.0 9.0 -1 ------- null}
r -t 0.34752 -s 7 -d 8 -p tcp -e 1040 -c 2 -i 8 -a 2 -x {2.0 9.1 1 ------- null}
+ -t 0.34752 -s 8 -d 9 -p tcp -e 1040 -c 2 -i 8 -a 2 -x {2.0 9.1 1 ------- null}
- -t 0.34752 -s 8 -d 9 -p tcp -e 1040 -c 2 -i 8 -a 2 -x {2.0 9.1 1 ------- null}
h -t 0.34752 -s 8 -d 9 -p tcp -e 1040 -c 2 -i 8 -a 2 -x {2.0 9.1 -1 ------- null}
r -t 0.34968 -s 8 -d 9 -p tcp -e 1040 -c 3 -i 7 -a 3 -x {3.0 9.2 2 ------- null}
+ -t 0.34968 -s 9 -d 8 -p ack -e 40 -c 3 -i 13 -a 3 -x {9.2 3.0 2 ------- null}
- -t 0.34968 -s 9 -d 8 -p ack -e 40 -c 3 -i 13 -a 3 -x {9.2 3.0 2 ------- null}
h -t 0.34968 -s 9 -d 8 -p ack -e 40 -c 3 -i 13 -a 3 -x {9.2 3.0 -1 ------- null}
r -t 0.34984 -s 2 -d 3 -p tcp -e 1040 -c 1 -i 11 -a 1 -x {0.0 9.0 2 ------- null}
+ -t 0.34984 -s 3 -d 4 -p tcp -e 1040 -c 1 -i 11 -a 1 -x {0.0 9.0 2 ------- null}
- -t 0.34984 -s 3 -d 4 -p tcp -e 1040 -c 1 -i 11 -a 1 -x {0.0 9.0 2 ------- null}
h -t 0.34984 -s 3 -d 4 -p tcp -e 1040 -c 1 -i 11 -a 1 -x {0.0 9.0 -1 ------- null}
r -t 0.35168 -s 7 -d 8 -p tcp -e 1040 -c 2 -i 9 -a 2 -x {2.0 9.1 2 ------- null}
+ -t 0.35168 -s 8 -d 9 -p tcp -e 1040 -c 2 -i 9 -a 2 -x {2.0 9.1 2 ------- null}
- -t 0.35584 -s 8 -d 9 -p tcp -e 1040 -c 2 -i 9 -a 2 -x {2.0 9.1 2 ------- null}
h -t 0.35584 -s 8 -d 9 -p tcp -e 1040 -c 2 -i 9 -a 2 -x {2.0 9.1 -1 ------- null}
r -t 0.35984 -s 3 -d 4 -p tcp -e 1040 -c 1 -i 10 -a 1 -x {0.0 9.0 1 ------- null}
+ -t 0.35984 -s 4 -d 5 -p tcp -e 1040 -c 1 -i 10 -a 1 -x {0.0 9.0 1 ------- null}
- -t 0.35984 -s 4 -d 5 -p tcp -e 1040 -c 1 -i 10 -a 1 -x {0.0 9.0 1 ------- null}
h -t 0.35984 -s 4 -d 5 -p tcp -e 1040 -c 1 -i 10 -a 1 -x {0.0 9.0 -1 ------- null}
r -t 0.36168 -s 9 -d 8 -p ack -e 40 -c 3 -i 12 -a 3 -x {9.2 3.0 1 ------- null}
+ -t 0.36168 -s 8 -d 7 -p ack -e 40 -c 3 -i 12 -a 3 -x {9.2 3.0 1 ------- null}
- -t 0.36168 -s 8 -d 7 -p ack -e 40 -c 3 -i 12 -a 3 -x {9.2 3.0 1 ------- null}
h -t 0.36168 -s 8 -d 7 -p ack -e 40 -c 3 -i 12 -a 3 -x {9.2 3.0 -1 ------- null}
r -t 0.364 -s 3 -d 4 -p tcp -e 1040 -c 1 -i 11 -a 1 -x {0.0 9.0 2 ------- null}
+ -t 0.364 -s 4 -d 5 -p tcp -e 1040 -c 1 -i 11 -a 1 -x {0.0 9.0 2 ------- null}
- -t 0.364 -s 4 -d 5 -p tcp -e 1040 -c 1 -i 11 -a 1 -x {0.0 9.0 2 ------- null}
h -t 0.364 -s 4 -d 5 -p tcp -e 1040 -c 1 -i 11 -a 1 -x {0.0 9.0 -1 ------- null}
r -t 0.37 -s 9 -d 8 -p ack -e 40 -c 3 -i 13 -a 3 -x {9.2 3.0 2 ------- null}
+ -t 0.37 -s 8 -d 7 -p ack -e 40 -c 3 -i 13 -a 3 -x {9.2 3.0 2 ------- null}
- -t 0.37 -s 8 -d 7 -p ack -e 40 -c 3 -i 13 -a 3 -x {9.2 3.0 2 ------- null}
h -t 0.37 -s 8 -d 7 -p ack -e 40 -c 3 -i 13 -a 3 -x {9.2 3.0 -1 ------- null}
r -t 0.37184 -s 8 -d 7 -p ack -e 40 -c 3 -i 12 -a 3 -x {9.2 3.0 1 ------- null}
+ -t 0.37184 -s 7 -d 6 -p ack -e 40 -c 3 -i 12 -a 3 -x {9.2 3.0 1 ------- null}
- -t 0.37184 -s 7 -d 6 -p ack -e 40 -c 3 -i 12 -a 3 -x {9.2 3.0 1 ------- null}
h -t 0.37184 -s 7 -d 6 -p ack -e 40 -c 3 -i 12 -a 3 -x {9.2 3.0 -1 ------- null}
r -t 0.374 -s 4 -d 5 -p tcp -e 1040 -c 1 -i 10 -a 1 -x {0.0 9.0 1 ------- null}
+ -t 0.374 -s 5 -d 6 -p tcp -e 1040 -c 1 -i 10 -a 1 -x {0.0 9.0 1 ------- null}
- -t 0.374 -s 5 -d 6 -p tcp -e 1040 -c 1 -i 10 -a 1 -x {0.0 9.0 1 ------- null}
h -t 0.374 -s 5 -d 6 -p tcp -e 1040 -c 1 -i 10 -a 1 -x {0.0 9.0 -1 ------- null}
r -t 0.37584 -s 8 -d 9 -p tcp -e 1040 -c 2 -i 8 -a 2 -x {2.0 9.1 1 ------- null}
+ -t 0.37584 -s 9 -d 8 -p ack -e 40 -c 2 -i 14 -a 2 -x {9.1 2.0 1 ------- null}
- -t 0.37584 -s 9 -d 8 -p ack -e 40 -c 2 -i 14 -a 2 -x {9.1 2.0 1 ------- null}
h -t 0.37584 -s 9 -d 8 -p ack -e 40 -c 2 -i 14 -a 2 -x {9.1 2.0 -1 ------- null}
r -t 0.37816 -s 4 -d 5 -p tcp -e 1040 -c 1 -i 11 -a 1 -x {0.0 9.0 2 ------- null}
+ -t 0.37816 -s 5 -d 6 -p tcp -e 1040 -c 1 -i 11 -a 1 -x {0.0 9.0 2 ------- null}
- -t 0.37816 -s 5 -d 6 -p tcp -e 1040 -c 1 -i 11 -a 1 -x {0.0 9.0 2 ------- null}
h -t 0.37816 -s 5 -d 6 -p tcp -e 1040 -c 1 -i 11 -a 1 -x {0.0 9.0 -1 ------- null}
r -t 0.38016 -s 8 -d 7 -p ack -e 40 -c 3 -i 13 -a 3 -x {9.2 3.0 2 ------- null}
+ -t 0.38016 -s 7 -d 6 -p ack -e 40 -c 3 -i 13 -a 3 -x {9.2 3.0 2 ------- null}
- -t 0.38016 -s 7 -d 6 -p ack -e 40 -c 3 -i 13 -a 3 -x {9.2 3.0 2 ------- null}
h -t 0.38016 -s 7 -d 6 -p ack -e 40 -c 3 -i 13 -a 3 -x {9.2 3.0 -1 ------- null}
r -t 0.382 -s 7 -d 6 -p ack -e 40 -c 3 -i 12 -a 3 -x {9.2 3.0 1 ------- null}
+ -t 0.382 -s 6 -d 5 -p ack -e 40 -c 3 -i 12 -a 3 -x {9.2 3.0 1 ------- null}
- -t 0.382 -s 6 -d 5 -p ack -e 40 -c 3 -i 12 -a 3 -x {9.2 3.0 1 ------- null}
h -t 0.382 -s 6 -d 5 -p ack -e 40 -c 3 -i 12 -a 3 -x {9.2 3.0 -1 ------- null}
r -t 0.38416 -s 8 -d 9 -p tcp -e 1040 -c 2 -i 9 -a 2 -x {2.0 9.1 2 ------- null}
+ -t 0.38416 -s 9 -d 8 -p ack -e 40 -c 2 -i 15 -a 2 -x {9.1 2.0 2 ------- null}
- -t 0.38416 -s 9 -d 8 -p ack -e 40 -c 2 -i 15 -a 2 -x {9.1 2.0 2 ------- null}
h -t 0.38416 -s 9 -d 8 -p ack -e 40 -c 2 -i 15 -a 2 -x {9.1 2.0 -1 ------- null}
r -t 0.38816 -s 5 -d 6 -p tcp -e 1040 -c 1 -i 10 -a 1 -x {0.0 9.0 1 ------- null}