+ 0.1 0 1 tcp 40 ------- 1 0.0 9.0 0 0
- 0.1 0 1 tcp 40 ------- 1 0.0 9.0 0 0
+ 0.1 2 3 tcp 40 ------- 2 2.0 9.1 0 1
- 0.1 2 3 tcp 40 ------- 2 2.0 9.1 0 1
+ 0.1 3 4 tcp 40 ------- 3 3.0 9.2 0 2
- 0.1 3 4 tcp 40 ------- 3 3.0 9.2 0 2
r 0.11016 0 1 tcp 40 ------- 1 0.0 9.0 0 0
+ 0.11016 1 2 tcp 40 ------- 1 0.0 9.0 0 0
- 0.11016 1 2 tcp 40 ------- 1 0.0 9.0 0 0
r 0.11016 2 3 tcp 40 ------- 2 2.0 9.1 0 1
+ 0.11016 3 4 tcp 40 ------- 2 2.0 9.1 0 1
- 0.11016 3 4 tcp 40 ------- 2 2.0 9.1 0 1
r 0.11016 3 4 tcp 40 ------- 3 3.0 9.2 0 2
+ 0.11016 4 5 tcp 40 ------- 3 3.0 9.2 0 2
- 0.11016 4 5 tcp 40 ------- 3 3.0 9.2 0 2
r 0.12032 1 2 tcp 40 ------- 1 0.0 9.0 0 0
+ 0.12032 2 3 tcp 40 ------- 1 0.0 9.0 0 0
- 0.12032 2 3 tcp 40 ------- 1 0.0 9.0 0 0
r 0.12032 3 4 tcp 40 ------- 2 2.0 9.1 0 1
+ 0.12032 4 5 tcp 40 ------- 2 2.0 9.1 0 1
- 0.12032 4 5 tcp 40 ------- 2 2.0 9.1 0 1
r 0.12032 4 5 tcp 40 ------- 3 3.0 9.2 0 2
+ 0.12032 5 6 tcp 40 ------- 3 3.0 9.2 0 2
- 0.12032 5 6 tcp 40 ------- 3 3.0 9.2 0 2
r 0.13048 2 3 tcp 40 ------- 1 0.0 9.0 0 0
+ 0.13048 3 4 tcp 40 ------- 1 0.0 9.0 0 0
- 0.13048 3 4 tcp 40 ------- 1 0.0 9.0 0 0
r 0.13048 4 5 tcp 40 ------- 2 2.0 9.1 0 1
+ 0.13048 5 6 tcp 40 ------- 2 2.0 9.1 0 1
- 0.13048 5 6 tcp 40 ------- 2 2.0 9.1 0 1
r 0.13048 5 6 tcp 40 ------- 3 3.0 9.2 0 2
+ 0.13048 6 7 tcp 40 ------- 3 3.0 9.2 0 2
- 0.13048 6 7 tcp 40 ------- 3 3.0 9.2 0 2
r 0.14064 3 4 tcp 40 ------- 1 0.0 9.0 0 0
+ 0.14064 4 5 tcp 40 ------- 1 0.0 9.0 0 0
- 0.14064 4 5 tcp 40 ------- 1 0.0 9.0 0 0
r 0.14064 5 6 tcp 40 ------- 2 2.0 9.1 0 1
+ 0.14064 6 7 tcp 40 ------- 2 2.0 9.1 0 1
- 0.14064 6 7 tcp 40 ------- 2 2.0 9.1 0 1
r 0.14064 6 7 tcp 40 ------- 3 3.0 9.2 0 2
+ 0.14064 7 8 tcp 40 ------- 3 3.0 9.2 0 2
- 0.14064 7 8 tcp 40 ------- 3 3.0 9.2 0 2
r 0.1508 4 5 tcp 40 ------- 1 0.0 9.0 0 0
+ 0.1508 5 6 tcp 40 ------- 1 0.0 9.0 0 0
- 0.1508 5 6 tcp 40 ------- 1 0.0 9.0 0 0
r 0.1508 6 7 tcp 40 ------- 2 2.0 9.1 0 1
+ 0.1508 7 8 tcp 40 ------- 2 2.0 9.1 0 1
- 0.1508 7 8 tcp 40 ------- 2 2.0 9.1 0 1
r 0.1508 7 8 tcp 40 ------- 3 3.0 9.2 0 2
+ 0.1508 8 9 tcp 40 ------- 3 3.0 9.2 0 2
- 0.1508 8 9 tcp 40 ------- 3 3.0 9.2 0 2
r 0.16096 5 6 tcp 40 ------- 1 0.0 9.0 0 0
+ 0.16096 6 7 tcp 40 ------- 1 0.0 9.0 0 0
- 0.16096 6 7 tcp 40 ------- 1 0.0 9.0 0 0
r 0.16096 7 8 tcp 40 ------- 2 2.0 9.1 0 1
+ 0.16096 8 9 tcp 40 ------- 2 2.0 9.1 0 1
- 0.16096 8 9 tcp 40 ------- 2 2.0 9.1 0 1
r 0.17112 8 9 tcp 40 ------- 3 3.0 9.2 0 2
+ 0.17112 9 8 ack 40 ------- 3 9.2 3.0 0 3
- 0.17112 9 8 ack 40 ------- 3 9.2 3.0 0 3
r 0.17112 6 7 tcp 40 ------- 1 0.0 9.0 0 0
+ 0.17112 7 8 tcp 40 ------- 1 0.0 9.0 0 0
- 0.17112 7 8 tcp 40 ------- 1 0.0 9.0 0 0
r 0.18128 8 9 tcp 40 ------- 2 2.0 9.1 0 1
+ 0.18128 9 8 ack 40 ------- 2 9.1 2.0 0 4
- 0.18128 9 8 ack 40 ------- 2 9.1 2.0 0 4
r 0.18128 7 8 tcp 40 ------- 1 0.0 9.0 0 0
+ 0.18128 8 9 tcp 40 ------- 1 0.0 9.0 0 0
- 0.18128 8 9 tcp 40 ------- 1 0.0 9.0 0 0
r 0.19144 9 8 ack 40 ------- 3 9.2 3.0 0 3
+ 0.19144 8 7 ack 40 ------- 3 9.2 3.0 0 3
- 0.19144 8 7 ack 40 ------- 3 9.2 3.0 0 3
r 0.2016 9 8 ack 40 ------- 2 9.1 2.0 0 4
+ 0.2016 8 7 ack 40 ------- 2 9.1 2.0 0 4
- 0.2016 8 7 ack 40 ------- 2 9.1 2.0 0 4
r 0.2016 8 9 tcp 40 ------- 1 0.0 9.0 0 0
+ 0.2016 9 8 ack 40 ------- 1 9.0 0.0 0 5
- 0.2016 9 8 ack 40 ------- 1 9.0 0.0 0 5
r 0.2016 8 7 ack 40 ------- 3 9.2 3.0 0 3
+ 0.2016 7 6 ack 40 ------- 3 9.2 3.0 0 3
- 0.2016 7 6 ack 40 ------- 3 9.2 3.0 0 3
r 0.21176 8 7 ack 40 ------- 2 9.1 2.0 0 4
+ 0.21176 7 6 ack 40 ------- 2 9.1 2.0 0 4
- 0.21176 7 6 ack 40 ------- 2 9.1 2.0 0 4
r 0.21176 7 6 ack 40 ------- 3 9.2 3.0 0 3
+ 0.21176 6 5 ack 40 ------- 3 9.2 3.0 0 3
- 0.21176 6 5 ack 40 ------- 3 9.2 3.0 0 3
r 0.22192 9 8 ack 40 ------- 1 9.0 0.0 0 5
+ 0.22192 8 7 ack 40 ------- 1 9.0 0.0 0 5
- 0.22192 8 7 ack 40 ------- 1 9.0 0.0 0 5
r 0.22192 7 6 ack 40 ------- 2 9.1 2.0 0 4
+ 0.22192 6 5 ack 40 ------- 2 9.1 2.0 0 4
- 0.22192 6 5 ack 40 ------- 2 9.1 2.0 0 4
r 0.22192 6 5 ack 40 ------- 3 9.2 3.0 0 3
+ 0.22192 5 4 ack 40 ------- 3 9.2 3.0 0 3
- 0.22192 5 4 ack 40 ------- 3 9.2 3.0 0 3
r 0.23208 8 7 ack 40 ------- 1 9.0 0.0 0 5
+ 0.23208 7 6 ack 40 ------- 1 9.0 0.0 0 5
- 0.23208 7 6 ack 40 ------- 1 9.0 0.0 0 5
r 0.23208 6 5 ack 40 ------- 2 9.1 2.0 0 4
+ 0.23208 5 4 ack 40 ------- 2 9.1 2.0 0 4
- 0.23208 5 4 ack 40 ------- 2 9.1 2.0 0 4
r 0.23208 5 4 ack 40 ------- 3 9.2 3.0 0 3
+ 0.23208 4 3 ack 40 ------- 3 9.2 3.0 0 3
- 0.23208 4 3 ack 40 ------- 3 9.2 3.0 0 3
r 0.24224 7 6 ack 40 ------- 1 9.0 0.0 0 5
+ 0.24224 6 5 ack 40 ------- 1 9.0 0.0 0 5
- 0.24224 6 5 ack 40 ------- 1 9.0 0.0 0 5
r 0.24224 5 4 ack 40 ------- 2 9.1 2.0 0 4
+ 0.24224 4 3 ack 40 ------- 2 9.1 2.0 0 4
- 0.24224 4 3 ack 40 ------- 2 9.1 2.0 0 4
r 0.24224 4 3 ack 40 ------- 3 9.2 3.0 0 3
+ 0.24224 3 4 tcp 1040 ------- 3 3.0 9.2 1 6
- 0.24224 3 4 tcp 1040 ------- 3 3.0 9.2 1 6
+ 0.24224 3 4 tcp 1040 ------- 3 3.0 9.2 2 7
- 0.2464 3 4 tcp 1040 ------- 3 3.0 9.2 2 7
r 0.2524 6 5 ack 40 ------- 1 9.0 0.0 0 5
+ 0.2524 5 4 ack 40 ------- 1 9.0 0.0 0 5
- 0.2524 5 4 ack 40 ------- 1 9.0 0.0 0 5
r 0.2524 4 3 ack 40 ------- 2 9.1 2.0 0 4
+ 0.2524 3 2 ack 40 ------- 2 9.1 2.0 0 4
- 0.2524 3 2 ack 40 ------- 2 9.1 2.0 0 4
r 0.2564 3 4 tcp 1040 ------- 3 3.0 9.2 1 6
+ 0.2564 4 5 tcp 1040 ------- 3 3.0 9.2 1 6
- 0.2564 4 5 tcp 1040 ------- 3 3.0 9.2 1 6
r 0.26056 3 4 tcp 1040 ------- 3 3.0 9.2 2 7
+ 0.26056 4 5 tcp 1040 ------- 3 3.0 9.2 2 7
- 0.26056 4 5 tcp 1040 ------- 3 3.0 9.2 2 7
r 0.26256 5 4 ack 40 ------- 1 9.0 0.0 0 5
+ 0.26256 4 3 ack 40 ------- 1 9.0 0.0 0 5
- 0.26256 4 3 ack 40 ------- 1 9.0 0.0 0 5
r 0.26256 3 2 ack 40 ------- 2 9.1 2.0 0 4
+ 0.26256 2 3 tcp 1040 ------- 2 2.0 9.1 1 8
- 0.26256 2 3 tcp 1040 ------- 2 2.0 9.1 1 8
+ 0.26256 2 3 tcp 1040 ------- 2 2.0 9.1 2 9
- 0.26672 2 3 tcp 1040 ------- 2 2.0 9.1 2 9
r 0.27056 4 5 tcp 1040 ------- 3 3.0 9.2 1 6
+ 0.27056 5 6 tcp 1040 ------- 3 3.0 9.2 1 6
- 0.27056 5 6 tcp 1040 ------- 3 3.0 9.2 1 6
r 0.27272 4 3 ack 40 ------- 1 9.0 0.0 0 5
+ 0.27272 3 2 ack 40 ------- 1 9.0 0.0 0 5
- 0.27272 3 2 ack 40 ------- 1 9.0 0.0 0 5
r 0.27472 4 5 tcp 1040 ------- 3 3.0 9.2 2 7
+ 0.27472 5 6 tcp 1040 ------- 3 3.0 9.2 2 7
- 0.27472 5 6 tcp 1040 ------- 3 3.0 9.2 2 7
r 0.27672 2 3 tcp 1040 ------- 2 2.0 9.1 1 8
+ 0.27672 3 4 tcp 1040 ------- 2 2.0 9.1 1 8
- 0.27672 3 4 tcp 1040 ------- 2 2.0 9.1 1 8
r 0.28088 2 3 tcp 1040 ------- 2 2.0 9.1 2 9
+ 0.28088 3 4 tcp 1040 ------- 2 2.0 9.1 2 9
- 0.28088 3 4 tcp 1040 ------- 2 2.0 9.1 2 9
r 0.28288 3 2 ack 40 ------- 1 9.0 0.0 0 5
+ 0.28288 2 1 ack 40 ------- 1 9.0 0.0 0 5
- 0.28288 2 1 ack 40 ------- 1 9.0 0.0 0 5
r 0.28472 5 6 tcp 1040 ------- 3 3.0 9.2 1 6
+ 0.28472 6 7 tcp 1040 ------- 3 3.0 9.2 1 6
- 0.28472 6 7 tcp 1040 ------- 3 3.0 9.2 1 6
r 0.28888 5 6 tcp 1040 ------- 3 3.0 9.2 2 7
+ 0.28888 6 7 tcp 1040 ------- 3 3.0 9.2 2 7
- 0.28888 6 7 tcp 1040 ------- 3 3.0 9.2 2 7
r 0.29088 3 4 tcp 1040 ------- 2 2.0 9.1 1 8
+ 0.29088 4 5 tcp 1040 ------- 2 2.0 9.1 1 8
- 0.29088 4 5 tcp 1040 ------- 2 2.0 9.1 1 8
r 0.29304 2 1 ack 40 ------- 1 9.0 0.0 0 5
+ 0.29304 1 0 ack 40 ------- 1 9.0 0.0 0 5
- 0.29304 1 0 ack 40 ------- 1 9.0 0.0 0 5
r 0.29504 3 4 tcp 1040 ------- 2 2.0 9.1 2 9
+ 0.29504 4 5 tcp 1040 ------- 2 2.0 9.1 2 9
- 0.29504 4 5 tcp 1040 ------- 2 2.0 9.1 2 9
r 0.29888 6 7 tcp 1040 ------- 3 3.0 9.2 1 6
+ 0.29888 7 8 tcp 1040 ------- 3 3.0 9.2 1 6
- 0.29888 7 8 tcp 1040 ------- 3 3.0 9.2 1 6
r 0.30304 6 7 tcp 1040 ------- 3 3.0 9.2 2 7
+ 0.30304 7 8 tcp 1040 ------- 3 3.0 9.2 2 7
- 0.30304 7 8 tcp 1040 ------- 3 3.0 9.2 2 7
r 0.3032 1 0 ack 40 ------- 1 9.0 0.0 0 5
+ 0.3032 0 1 tcp 1040 ------- 1 0.0 9.0 1 10
- 0.3032 0 1 tcp 1040 ------- 1 0.0 9.0 1 10
+ 0.3032 0 1 tcp 1040 ------- 1 0.0 9.0 2 11
r 0.30504 4 5 tcp 1040 ------- 2 2.0 9.1 1 8
+ 0.30504 5 6 tcp 1040 ------- 2 2.0 9.1 1 8
- 0.30504 5 6 tcp 1040 ------- 2 2.0 9.1 1 8
- 0.30736 0 1 tcp 1040 ------- 1 0.0 9.0 2 11
r 0.3092 4 5 tcp 1040 ------- 2 2.0 9.1 2 9
+ 0.3092 5 6 tcp 1040 ------- 2 2.0 9.1 2 9
- 0.3092 5 6 tcp 1040 ------- 2 2.0 9.1 2 9
r 0.31304 7 8 tcp 1040 ------- 3 3.0 9.2 1 6
+ 0.31304 8 9 tcp 1040 ------- 3 3.0 9.2 1 6
- 0.31304 8 9 tcp 1040 ------- 3 3.0 9.2 1 6
r 0.3172 7 8 tcp 1040 ------- 3 3.0 9.2 2 7
+ 0.3172 8 9 tcp 1040 ------- 3 3.0 9.2 2 7
r 0.31736 0 1 tcp 1040 ------- 1 0.0 9.0 1 10
+ 0.31736 1 2 tcp 1040 ------- 1 0.0 9.0 1 10
- 0.31736 1 2 tcp 1040 ------- 1 0.0 9.0 1 10
r 0.3192 5 6 tcp 1040 ------- 2 2.0 9.1 1 8
+ 0.3192 6 7 tcp 1040 ------- 2 2.0 9.1 1 8
- 0.3192 6 7 tcp 1040 ------- 2 2.0 9.1 1 8
- 0.32136 8 9 tcp 1040 ------- 3 3.0 9.2 2 7
r 0.32152 0 1 tcp 1040 ------- 1 0.0 9.0 2 11
+ 0.32152 1 2 tcp 1040 ------- 1 0.0 9.0 2 11
- 0.32152 1 2 tcp 1040 ------- 1 0.0 9.0 2 11
r 0.32336 5 6 tcp 1040 ------- 2 2.0 9.1 2 9
+ 0.32336 6 7 tcp 1040 ------- 2 2.0 9.1 2 9
- 0.32336 6 7 tcp 1040 ------- 2 2.0 9.1 2 9
r 0.33152 1 2 tcp 1040 ------- 1 0.0 9.0 1 10
+ 0.33152 2 3 tcp 1040 ------- 1 0.0 9.0 1 10
- 0.33152 2 3 tcp 1040 ------- 1 0.0 9.0 1 10
r 0.33336 6 7 tcp 1040 ------- 2 2.0 9.1 1 8
+ 0.33336 7 8 tcp 1040 ------- 2 2.0 9.1 1 8
- 0.33336 7 8 tcp 1040 ------- 2 2.0 9.1 1 8
r 0.33568 1 2 tcp 1040 ------- 1 0.0 9.0 2 11
+ 0.33568 2 3 tcp 1040 ------- 1 0.0 9.0 2 11
- 0.33568 2 3 tcp 1040 ------- 1 0.0 9.0 2 11
r 0.33752 6 7 tcp 1040 ------- 2 2.0 9.1 2 9
+ 0.33752 7 8 tcp 1040 ------- 2 2.0 9.1 2 9
- 0.33752 7 8 tcp 1040 ------- 2 2.0 9.1 2 9
r 0.34136 8 9 tcp 1040 ------- 3 3.0 9.2 1 6
+ 0.34136 9 8 ack 40 ------- 3 9.2 3.0 1 12
- 0.34136 9 8 ack 40 ------- 3 9.2 3.0 1 12
r 0.34568 2 3 tcp 1040 ------- 1 0.0 9.0 1 10
+ 0.34568 3 4 tcp 1040 ------- 1 0.0 9.0 1 10
- 0.34568 3 4 tcp 1040 ------- 1 0.0 9.0 1 10
r 0.34752 7 8 tcp 1040 ------- 2 2.0 9.1 1 8
+ 0.34752 8 9 tcp 1040 ------- 2 2.0 9.1 1 8
- 0.34752 8 9 tcp 1040 ------- 2 2.0 9.1 1 8
r 0.34968 8 9 tcp 1040 ------- 3 3.0 9.2 2 7
+ 0.34968 9 8 ack 40 ------- 3 9.2 3.0 2 13
- 0.34968 9 8 ack 40 ------- 3 9.2 3.0 2 13
r 0.34984 2 3 tcp 1040 ------- 1 0.0 9.0 2 11
+ 0.34984 3 4 tcp 1040 ------- 1 0.0 9.0 2 11
- 0.34984 3 4 tcp 1040 ------- 1 0.0 9.0 2 11
r 0.35168 7 8 tcp 1040 ------- 2 2.0 9.1 2 9
+ 0.35168 8 9 tcp 1040 ------- 2 2.0 9.1 2 9
- 0.35584 8 9 tcp 1040 ------- 2 2.0 9.1 2 9
r 0.35984 3 4 tcp 1040 ------- 1 0.0 9.0 1 10
+ 0.35984 4 5 tcp 1040 ------- 1 0.0 9.0 1 10
- 0.35984 4 5 tcp 1040 ------- 1 0.0 9.0 1 10
r 0.36168 9 8 ack 40 ------- 3 9.2 3.0 1 12
+ 0.36168 8 7 ack 40 ------- 3 9.2 3.0 1 12
- 0.36168 8 7 ack 40 ------- 3 9.2 3.0 1 12
r 0.364 3 4 tcp 1040 ------- 1 0.0 9.0 2 11
+ 0.364 4 5 tcp 1040 ------- 1 0.0 9.0 2 11
- 0.364 4 5 tcp 1040 ------- 1 0.0 9.0 2 11
r 0.37 9 8 ack 40 ------- 3 9.2 3.0 2 13
+ 0.37 8 7 ack 40 ------- 3 9.2 3.0 2 13
- 0.37 8 7 ack 40 ------- 3 9.2 3.0 2 13
r 0.37184 8 7 ack 40 ------- 3 9.2 3.0 1 12
+ 0.37184 7 6 ack 40 ------- 3 9.2 3.0 1 12
- 0.37184 7 6 ack 40 ------- 3 9.2 3.0 1 12
r 0.374 4 5 tcp 1040 ------- 1 0.0 9.0 1 10
+ 0.374 5 6 tcp 1040 ------- 1 0.0 9.0 1 10
- 0.374 5 6 tcp 1040 ------- 1 0.0 9.0 1 10
r 0.37584 8 9 tcp 1040 ------- 2 2.0 9.1 1 8
+ 0.37584 9 8 ack 40 ------- 2 9.1 2.0 1 14
- 0.37584 9 8 ack 40 ------- 2 9.1 2.0 1 14
r 0.37816 4 5 tcp 1040 ------- 1 0.0 9.0 2 11
+ 0.37816 5 6 tcp 1040 ------- 1 0.0 9.0 2 11
- 0.37816 5 6 tcp 1040 ------- 1 0.0 9.0 2 11
r 0.38016 8 7 ack 40 ------- 3 9.2 3.0 2 13
+ 0.38016 7 6 ack 40 ------- 3 9.2 3.0 2 13
- 0.38016 7 6 ack 40 ------- 3 9.2 3.0 2 13
r 0.382 7 6 ack 40 ------- 3 9.2 3.0 1 12
+ 0.382 6 5 ack 40 ------- 3 9.2 3.0 1 12
- 0.382 6 5 ack 40 ------- 3 9.2 3.0 1 12
r 0.38416 8 9 tcp 1040 ------- 2 2.0 9.1 2 9
+ 0.38416 9 8 ack 40 ------- 2 9.1 2.0 2 15
- 0.38416 9 8 ack 40 ------- 2 9.1 2.0 2 15
r 0.38816 5 6 tcp 1040 ------- 1 0.0 9.0 1 10
+ 0.38816 6 7 tcp 1040 ------- 1 0.0 9.0 1 10
- 0.38816 6 7 tcp 1040 ------- 1 0.0 9.0 1 10
r 0.39032 7 6 ack 40 ------- 3 9.2 3.0 2 13
+ 0.39032 6 5 ack 40 ------- 3 9.2 3.0 2 13
- 0.39032 6 5 ack 40 ------- 3 9.2 3.0 2 13
r 0.39216 6 5 ack 40 ------- 3 9.2 3.0 1 12
+ 0.39216 5 4 ack 40 ------- 3 9.2 3.0 1 12
- 0.39216 5 4 ack 40 ------- 3 9.2 3.0 1 12
r 0.39232 5 6 tcp 1040 ------- 1 0.0 9.0 2 11
+ 0.39232 6 7 tcp 1040 ------- 1 0.0 9.0 2 11
- 0.39232 6 7 tcp 1040 ------- 1 0.0 9.0 2 11
r 0.39616 9 8 ack 40 ------- 2 9.1 2.0 1 14
+ 0.39616 8 7 ack 40 ------- 2 9.1 2.0 1 14
- 0.39616 8 7 ack 40 ------- 2 9.1 2.0 1 14
r 0.40048 6 5 ack 40 ------- 3 9.2 3.0 2 13
+ 0.40048 5 4 ack 40 ------- 3 9.2 3.0 2 13
- 0.40048 5 4 ack 40 ------- 3 9.2 3.0 2 13
r 0.40232 6 7 tcp 1040 ------- 1 0.0 9.0 1 10
+ 0.40232 7 8 tcp 1040 ------- 1 0.0 9.0 1 10
- 0.40232 7 8 tcp 1040 ------- 1 0.0 9.0 1 10
r 0.40232 5 4 ack 40 ------- 3 9.2 3.0 1 12
+ 0.40232 4 3 ack 40 ------- 3 9.2 3.0 1 12
- 0.40232 4 3 ack 40 ------- 3 9.2 3.0 1 12
r 0.40448 9 8 ack 40 ------- 2 9.1 2.0 2 15
+ 0.40448 8 7 ack 40 ------- 2 9.1 2.0 2 15
- 0.40448 8 7 ack 40 ------- 2 9.1 2.0 2 15
r 0.40632 8 7 ack 40 ------- 2 9.1 2.0 1 14
+ 0.40632 7 6 ack 40 ------- 2 9.1 2.0 1 14
- 0.40632 7 6 ack 40 ------- 2 9.1 2.0 1 14
r 0.40648 6 7 tcp 1040 ------- 1 0.0 9.0 2 11
+ 0.40648 7 8 tcp 1040 ------- 1 0.0 9.0 2 11
- 0.40648 7 8 tcp 1040 ------- 1 0.0 9.0 2 11
r 0.41064 5 4 ack 40 ------- 3 9.2 3.0 2 13
+ 0.41064 4 3 ack 40 ------- 3 9.2 3.0 2 13
- 0.41064 4 3 ack 40 ------- 3 9.2 3.0 2 13
r 0.41248 4 3 ack 40 ------- 3 9.2 3.0 1 12
+ 0.41248 3 4 tcp 1040 ------- 3 3.0 9.2 3 16
- 0.41248 3 4 tcp 1040 ------- 3 3.0 9.2 3 16
+ 0.41248 3 4 tcp 1040 ------- 3 3.0 9.2 4 17
r 0.41464 8 7 ack 40 ------- 2 9.1 2.0 2 15
+ 0.41464 7 6 ack 40 ------- 2 9.1 2.0 2 15
- 0.41464 7 6 ack 40 ------- 2 9.1 2.0 2 15
r 0.41648 7 8 tcp 1040 ------- 1 0.0 9.0 1 10
+ 0.41648 8 9 tcp 1040 ------- 1 0.0 9.0 1 10
- 0.41648 8 9 tcp 1040 ------- 1 0.0 9.0 1 10
r 0.41648 7 6 ack 40 ------- 2 9.1 2.0 1 14
+ 0.41648 6 5 ack 40 ------- 2 9.1 2.0 1 14
- 0.41648 6 5 ack 40 ------- 2 9.1 2.0 1 14
- 0.41664 3 4 tcp 1040 ------- 3 3.0 9.2 4 17
r 0.42064 7 8 tcp 1040 ------- 1 0.0 9.0 2 11
+ 0.42064 8 9 tcp 1040 ------- 1 0.0 9.0 2 11
r 0.4208 4 3 ack 40 ------- 3 9.2 3.0 2 13
+ 0.4208 3 4 tcp 1040 ------- 3 3.0 9.2 5 18
+ 0.4208 3 4 tcp 1040 ------- 3 3.0 9.2 6 19
- 0.4208 3 4 tcp 1040 ------- 3 3.0 9.2 5 18
r 0.4248 7 6 ack 40 ------- 2 9.1 2.0 2 15
+ 0.4248 6 5 ack 40 ------- 2 9.1 2.0 2 15
- 0.4248 6 5 ack 40 ------- 2 9.1 2.0 2 15
- 0.4248 8 9 tcp 1040 ------- 1 0.0 9.0 2 11
- 0.42496 3 4 tcp 1040 ------- 3 3.0 9.2 6 19
r 0.42664 3 4 tcp 1040 ------- 3 3.0 9.2 3 16
+ 0.42664 4 5 tcp 1040 ------- 3 3.0 9.2 3 16
- 0.42664 4 5 tcp 1040 ------- 3 3.0 9.2 3 16
r 0.42664 6 5 ack 40 ------- 2 9.1 2.0 1 14
+ 0.42664 5 4 ack 40 ------- 2 9.1 2.0 1 14
- 0.42664 5 4 ack 40 ------- 2 9.1 2.0 1 14
r 0.4308 3 4 tcp 1040 ------- 3 3.0 9.2 4 17
+ 0.4308 4 5 tcp 1040 ------- 3 3.0 9.2 4 17
- 0.4308 4 5 tcp 1040 ------- 3 3.0 9.2 4 17
r 0.43496 3 4 tcp 1040 ------- 3 3.0 9.2 5 18
+ 0.43496 4 5 tcp 1040 ------- 3 3.0 9.2 5 18
r 0.43496 6 5 ack 40 ------- 2 9.1 2.0 2 15
+ 0.43496 5 4 ack 40 ------- 2 9.1 2.0 2 15
- 0.43496 5 4 ack 40 ------- 2 9.1 2.0 2 15
- 0.43496 4 5 tcp 1040 ------- 3 3.0 9.2 5 18
r 0.4368 5 4 ack 40 ------- 2 9.1 2.0 1 14
+ 0.4368 4 3 ack 40 ------- 2 9.1 2.0 1 14
- 0.4368 4 3 ack 40 ------- 2 9.1 2.0 1 14
r 0.43912 3 4 tcp 1040 ------- 3 3.0 9.2 6 19
+ 0.43912 4 5 tcp 1040 ------- 3 3.0 9.2 6 19
- 0.43912 4 5 tcp 1040 ------- 3 3.0 9.2 6 19
r 0.4408 4 5 tcp 1040 ------- 3 3.0 9.2 3 16
+ 0.4408 5 6 tcp 1040 ------- 3 3.0 9.2 3 16
- 0.4408 5 6 tcp 1040 ------- 3 3.0 9.2 3 16
r 0.4448 8 9 tcp 1040 ------- 1 0.0 9.0 1 10
+ 0.4448 9 8 ack 40 ------- 1 9.0 0.0 1 20
- 0.4448 9 8 ack 40 ------- 1 9.0 0.0 1 20
r 0.44496 4 5 tcp 1040 ------- 3 3.0 9.2 4 17
+ 0.44496 5 6 tcp 1040 ------- 3 3.0 9.2 4 17
- 0.44496 5 6 tcp 1040 ------- 3 3.0 9.2 4 17
r 0.44512 5 4 ack 40 ------- 2 9.1 2.0 2 15
+ 0.44512 4 3 ack 40 ------- 2 9.1 2.0 2 15
- 0.44512 4 3 ack 40 ------- 2 9.1 2.0 2 15
r 0.44696 4 3 ack 40 ------- 2 9.1 2.0 1 14
+ 0.44696 3 2 ack 40 ------- 2 9.1 2.0 1 14
- 0.44696 3 2 ack 40 ------- 2 9.1 2.0 1 14
r 0.44912 4 5 tcp 1040 ------- 3 3.0 9.2 5 18
+ 0.44912 5 6 tcp 1040 ------- 3 3.0 9.2 5 18
- 0.44912 5 6 tcp 1040 ------- 3 3.0 9.2 5 18
r 0.45312 8 9 tcp 1040 ------- 1 0.0 9.0 2 11
+ 0.45312 9 8 ack 40 ------- 1 9.0 0.0 2 21
- 0.45312 9 8 ack 40 ------- 1 9.0 0.0 2 21
r 0.45328 4 5 tcp 1040 ------- 3 3.0 9.2 6 19
+ 0.45328 5 6 tcp 1040 ------- 3 3.0 9.2 6 19
- 0.45328 5 6 tcp 1040 ------- 3 3.0 9.2 6 19
r 0.45496 5 6 tcp 1040 ------- 3 3.0 9.2 3 16
+ 0.45496 6 7 tcp 1040 ------- 3 3.0 9.2 3 16
- 0.45496 6 7 tcp 1040 ------- 3 3.0 9.2 3 16
r 0.45528 4 3 ack 40 ------- 2 9.1 2.0 2 15
+ 0.45528 3 2 ack 40 ------- 2 9.1 2.0 2 15
- 0.45528 3 2 ack 40 ------- 2 9.1 2.0 2 15
r 0.45712 3 2 ack 40 ------- 2 9.1 2.0 1 14
+ 0.45712 2 3 tcp 1040 ------- 2 2.0 9.1 3 22
- 0.45712 2 3 tcp 1040 ------- 2 2.0 9.1 3 22
+ 0.45712 2 3 tcp 1040 ------- 2 2.0 9.1 4 23
r 0.45912 5 6 tcp 1040 ------- 3 3.0 9.2 4 17
+ 0.45912 6 7 tcp 1040 ------- 3 3.0 9.2 4 17
- 0.45912 6 7 tcp 1040 ------- 3 3.0 9.2 4 17
- 0.46128 2 3 tcp 1040 ------- 2 2.0 9.1 4 23
r 0.46328 5 6 tcp 1040 ------- 3 3.0 9.2 5 18
+ 0.46328 6 7 tcp 1040 ------- 3 3.0 9.2 5 18
- 0.46328 6 7 tcp 1040 ------- 3 3.0 9.2 5 18
r 0.46512 9 8 ack 40 ------- 1 9.0 0.0 1 20
+ 0.46512 8 7 ack 40 ------- 1 9.0 0.0 1 20
- 0.46512 8 7 ack 40 ------- 1 9.0 0.0 1 20
r 0.46544 3 2 ack 40 ------- 2 9.1 2.0 2 15
+ 0.46544 2 3 tcp 1040 ------- 2 2.0 9.1 5 24
+ 0.46544 2 3 tcp 1040 ------- 2 2.0 9.1 6 25
- 0.46544 2 3 tcp 1040 ------- 2 2.0 9.1 5 24
r 0.46744 5 6 tcp 1040 ------- 3 3.0 9.2 6 19
+ 0.46744 6 7 tcp 1040 ------- 3 3.0 9.2 6 19
- 0.46744 6 7 tcp 1040 ------- 3 3.0 9.2 6 19
r 0.46912 6 7 tcp 1040 ------- 3 3.0 9.2 3 16
+ 0.46912 7 8 tcp 1040 ------- 3 3.0 9.2 3 16
- 0.46912 7 8 tcp 1040 ------- 3 3.0 9.2 3 16
- 0.4696 2 3 tcp 1040 ------- 2 2.0 9.1 6 25
r 0.47128 2 3 tcp 1040 ------- 2 2.0 9.1 3 22
+ 0.47128 3 4 tcp 1040 ------- 2 2.0 9.1 3 22
- 0.47128 3 4 tcp 1040 ------- 2 2.0 9.1 3 22
r 0.47328 6 7 tcp 1040 ------- 3 3.0 9.2 4 17
+ 0.47328 7 8 tcp 1040 ------- 3 3.0 9.2 4 17
- 0.47328 7 8 tcp 1040 ------- 3 3.0 9.2 4 17
r 0.47344 9 8 ack 40 ------- 1 9.0 0.0 2 21
+ 0.47344 8 7 ack 40 ------- 1 9.0 0.0 2 21
- 0.47344 8 7 ack 40 ------- 1 9.0 0.0 2 21
r 0.47528 8 7 ack 40 ------- 1 9.0 0.0 1 20
+ 0.47528 7 6 ack 40 ------- 1 9.0 0.0 1 20
- 0.47528 7 6 ack 40 ------- 1 9.0 0.0 1 20
r 0.47544 2 3 tcp 1040 ------- 2 2.0 9.1 4 23
+ 0.47544 3 4 tcp 1040 ------- 2 2.0 9.1 4 23
- 0.47544 3 4 tcp 1040 ------- 2 2.0 9.1 4 23
r 0.47744 6 7 tcp 1040 ------- 3 3.0 9.2 5 18
+ 0.47744 7 8 tcp 1040 ------- 3 3.0 9.2 5 18
- 0.47744 7 8 tcp 1040 ------- 3 3.0 9.2 5 18
r 0.4796 2 3 tcp 1040 ------- 2 2.0 9.1 5 24
+ 0.4796 3 4 tcp 1040 ------- 2 2.0 9.1 5 24
- 0.4796 3 4 tcp 1040 ------- 2 2.0 9.1 5 24
r 0.4816 6 7 tcp 1040 ------- 3 3.0 9.2 6 19
+ 0.4816 7 8 tcp 1040 ------- 3 3.0 9.2 6 19
- 0.4816 7 8 tcp 1040 ------- 3 3.0 9.2 6 19
r 0.48328 7 8 tcp 1040 ------- 3 3.0 9.2 3 16
+ 0.48328 8 9 tcp 1040 ------- 3 3.0 9.2 3 16
- 0.48328 8 9 tcp 1040 ------- 3 3.0 9.2 3 16
r 0.4836 8 7 ack 40 ------- 1 9.0 0.0 2 21
+ 0.4836 7 6 ack 40 ------- 1 9.0 0.0 2 21
- 0.4836 7 6 ack 40 ------- 1 9.0 0.0 2 21
r 0.48376 2 3 tcp 1040 ------- 2 2.0 9.1 6 25
+ 0.48376 3 4 tcp 1040 ------- 2 2.0 9.1 6 25
- 0.48376 3 4 tcp 1040 ------- 2 2.0 9.1 6 25
r 0.48544 3 4 tcp 1040 ------- 2 2.0 9.1 3 22
+ 0.48544 4 5 tcp 1040 ------- 2 2.0 9.1 3 22
- 0.48544 4 5 tcp 1040 ------- 2 2.0 9.1 3 22
r 0.48544 7 6 ack 40 ------- 1 9.0 0.0 1 20
+ 0.48544 6 5 ack 40 ------- 1 9.0 0.0 1 20
- 0.48544 6 5 ack 40 ------- 1 9.0 0.0 1 20
r 0.48744 7 8 tcp 1040 ------- 3 3.0 9.2 4 17
+ 0.48744 8 9 tcp 1040 ------- 3 3.0 9.2 4 17
r 0.4896 3 4 tcp 1040 ------- 2 2.0 9.1 4 23
+ 0.4896 4 5 tcp 1040 ------- 2 2.0 9.1 4 23
- 0.4896 4 5 tcp 1040 ------- 2 2.0 9.1 4 23
r 0.4916 7 8 tcp 1040 ------- 3 3.0 9.2 5 18
+ 0.4916 8 9 tcp 1040 ------- 3 3.0 9.2 5 18
- 0.4916 8 9 tcp 1040 ------- 3 3.0 9.2 4 17
r 0.49376 3 4 tcp 1040 ------- 2 2.0 9.1 5 24
+ 0.49376 4 5 tcp 1040 ------- 2 2.0 9.1 5 24
r 0.49376 7 6 ack 40 ------- 1 9.0 0.0 2 21
+ 0.49376 6 5 ack 40 ------- 1 9.0 0.0 2 21
- 0.49376 6 5 ack 40 ------- 1 9.0 0.0 2 21
- 0.49376 4 5 tcp 1040 ------- 2 2.0 9.1 5 24
r 0.4956 6 5 ack 40 ------- 1 9.0 0.0 1 20
+ 0.4956 5 4 ack 40 ------- 1 9.0 0.0 1 20
- 0.4956 5 4 ack 40 ------- 1 9.0 0.0 1 20
r 0.49576 7 8 tcp 1040 ------- 3 3.0 9.2 6 19
+ 0.49576 8 9 tcp 1040 ------- 3 3.0 9.2 6 19
r 0.49792 3 4 tcp 1040 ------- 2 2.0 9.1 6 25
+ 0.49792 4 5 tcp 1040 ------- 2 2.0 9.1 6 25
- 0.49792 4 5 tcp 1040 ------- 2 2.0 9.1 6 25
r 0.4996 4 5 tcp 1040 ------- 2 2.0 9.1 3 22
+ 0.4996 5 6 tcp 1040 ------- 2 2.0 9.1 3 22
- 0.4996 5 6 tcp 1040 ------- 2 2.0 9.1 3 22
- 0.49992 8 9 tcp 1040 ------- 3 3.0 9.2 5 18
r 0.50376 4 5 tcp 1040 ------- 2 2.0 9.1 4 23
+ 0.50376 5 6 tcp 1040 ------- 2 2.0 9.1 4 23
- 0.50376 5 6 tcp 1040 ------- 2 2.0 9.1 4 23
r 0.50392 6 5 ack 40 ------- 1 9.0 0.0 2 21
+ 0.50392 5 4 ack 40 ------- 1 9.0 0.0 2 21
- 0.50392 5 4 ack 40 ------- 1 9.0 0.0 2 21
r 0.50576 5 4 ack 40 ------- 1 9.0 0.0 1 20
+ 0.50576 4 3 ack 40 ------- 1 9.0 0.0 1 20
- 0.50576 4 3 ack 40 ------- 1 9.0 0.0 1 20
r 0.50792 4 5 tcp 1040 ------- 2 2.0 9.1 5 24
+ 0.50792 5 6 tcp 1040 ------- 2 2.0 9.1 5 24
- 0.50792 5 6 tcp 1040 ------- 2 2.0 9.1 5 24
- 0.50824 8 9 tcp 1040 ------- 3 3.0 9.2 6 19
r 0.5116 8 9 tcp 1040 ------- 3 3.0 9.2 3 16
+ 0.5116 9 8 ack 40 ------- 3 9.2 3.0 3 26
- 0.5116 9 8 ack 40 ------- 3 9.2 3.0 3 26
r 0.51208 4 5 tcp 1040 ------- 2 2.0 9.1 6 25
+ 0.51208 5 6 tcp 1040 ------- 2 2.0 9.1 6 25
- 0.51208 5 6 tcp 1040 ------- 2 2.0 9.1 6 25
r 0.51376 5 6 tcp 1040 ------- 2 2.0 9.1 3 22
+ 0.51376 6 7 tcp 1040 ------- 2 2.0 9.1 3 22
- 0.51376 6 7 tcp 1040 ------- 2 2.0 9.1 3 22
r 0.51408 5 4 ack 40 ------- 1 9.0 0.0 2 21
+ 0.51408 4 3 ack 40 ------- 1 9.0 0.0 2 21
- 0.51408 4 3 ack 40 ------- 1 9.0 0.0 2 21
r 0.51592 4 3 ack 40 ------- 1 9.0 0.0 1 20
+ 0.51592 3 2 ack 40 ------- 1 9.0 0.0 1 20
- 0.51592 3 2 ack 40 ------- 1 9.0 0.0 1 20
r 0.51792 5 6 tcp 1040 ------- 2 2.0 9.1 4 23
+ 0.51792 6 7 tcp 1040 ------- 2 2.0 9.1 4 23
- 0.51792 6 7 tcp 1040 ------- 2 2.0 9.1 4 23
r 0.51992 8 9 tcp 1040 ------- 3 3.0 9.2 4 17
+ 0.51992 9 8 ack 40 ------- 3 9.2 3.0 4 27
- 0.51992 9 8 ack 40 ------- 3 9.2 3.0 4 27
r 0.52208 5 6 tcp 1040 ------- 2 2.0 9.1 5 24
+ 0.52208 6 7 tcp 1040 ------- 2 2.0 9.1 5 24
- 0.52208 6 7 tcp 1040 ------- 2 2.0 9.1 5 24
r 0.52424 4 3 ack 40 ------- 1 9.0 0.0 2 21
+ 0.52424 3 2 ack 40 ------- 1 9.0 0.0 2 21
- 0.52424 3 2 ack 40 ------- 1 9.0 0.0 2 21
r 0.52608 3 2 ack 40 ------- 1 9.0 0.0 1 20
+ 0.52608 2 1 ack 40 ------- 1 9.0 0.0 1 20
- 0.52608 2 1 ack 40 ------- 1 9.0 0.0 1 20
r 0.52624 5 6 tcp 1040 ------- 2 2.0 9.1 6 25
+ 0.52624 6 7 tcp 1040 ------- 2 2.0 9.1 6 25
- 0.52624 6 7 tcp 1040 ------- 2 2.0 9.1 6 25
r 0.52792 6 7 tcp 1040 ------- 2 2.0 9.1 3 22
+ 0.52792 7 8 tcp 1040 ------- 2 2.0 9.1 3 22
- 0.52792 7 8 tcp 1040 ------- 2 2.0 9.1 3 22
r 0.52824 8 9 tcp 1040 ------- 3 3.0 9.2 5 18
+ 0.52824 9 8 ack 40 ------- 3 9.2 3.0 5 28
- 0.52824 9 8 ack 40 ------- 3 9.2 3.0 5 28
r 0.53192 9 8 ack 40 ------- 3 9.2 3.0 3 26
+ 0.53192 8 7 ack 40 ------- 3 9.2 3.0 3 26
- 0.53192 8 7 ack 40 ------- 3 9.2 3.0 3 26
r 0.53208 6 7 tcp 1040 ------- 2 2.0 9.1 4 23
+ 0.53208 7 8 tcp 1040 ------- 2 2.0 9.1 4 23
- 0.53208 7 8 tcp 1040 ------- 2 2.0 9.1 4 23
r 0.5344 3 2 ack 40 ------- 1 9.0 0.0 2 21
+ 0.5344 2 1 ack 40 ------- 1 9.0 0.0 2 21
- 0.5344 2 1 ack 40 ------- 1 9.0 0.0 2 21
r 0.53624 2 1 ack 40 ------- 1 9.0 0.0 1 20
+ 0.53624 1 0 ack 40 ------- 1 9.0 0.0 1 20
- 0.53624 1 0 ack 40 ------- 1 9.0 0.0 1 20
r 0.53624 6 7 tcp 1040 ------- 2 2.0 9.1 5 24
+ 0.53624 7 8 tcp 1040 ------- 2 2.0 9.1 5 24
- 0.53624 7 8 tcp 1040 ------- 2 2.0 9.1 5 24
r 0.53656 8 9 tcp 1040 ------- 3 3.0 9.2 6 19
+ 0.53656 9 8 ack 40 ------- 3 9.2 3.0 6 29
- 0.53656 9 8 ack 40 ------- 3 9.2 3.0 6 29
r 0.54024 9 8 ack 40 ------- 3 9.2 3.0 4 27
+ 0.54024 8 7 ack 40 ------- 3 9.2 3.0 4 27
- 0.54024 8 7 ack 40 ------- 3 9.2 3.0 4 27
r 0.5404 6 7 tcp 1040 ------- 2 2.0 9.1 6 25
+ 0.5404 7 8 tcp 1040 ------- 2 2.0 9.1 6 25
- 0.5404 7 8 tcp 1040 ------- 2 2.0 9.1 6 25
r 0.54208 7 8 tcp 1040 ------- 2 2.0 9.1 3 22
+ 0.54208 8 9 tcp 1040 ------- 2 2.0 9.1 3 22
- 0.54208 8 9 tcp 1040 ------- 2 2.0 9.1 3 22
r 0.54208 8 7 ack 40 ------- 3 9.2 3.0 3 26
+ 0.54208 7 6 ack 40 ------- 3 9.2 3.0 3 26
- 0.54208 7 6 ack 40 ------- 3 9.2 3.0 3 26
r 0.54456 2 1 ack 40 ------- 1 9.0 0.0 2 21
+ 0.54456 1 0 ack 40 ------- 1 9.0 0.0 2 21
- 0.54456 1 0 ack 40 ------- 1 9.0 0.0 2 21
r 0.54624 7 8 tcp 1040 ------- 2 2.0 9.1 4 23
+ 0.54624 8 9 tcp 1040 ------- 2 2.0 9.1 4 23
r 0.5464 1 0 ack 40 ------- 1 9.0 0.0 1 20
+ 0.5464 0 1 tcp 1040 ------- 1 0.0 9.0 3 30
- 0.5464 0 1 tcp 1040 ------- 1 0.0 9.0 3 30
+ 0.5464 0 1 tcp 1040 ------- 1 0.0 9.0 4 31
r 0.54856 9 8 ack 40 ------- 3 9.2 3.0 5 28
+ 0.54856 8 7 ack 40 ------- 3 9.2 3.0 5 28
- 0.54856 8 7 ack 40 ------- 3 9.2 3.0 5 28
r 0.5504 8 7 ack 40 ------- 3 9.2 3.0 4 27
+ 0.5504 7 6 ack 40 ------- 3 9.2 3.0 4 27
- 0.5504 7 6 ack 40 ------- 3 9.2 3.0 4 27
- 0.5504 8 9 tcp 1040 ------- 2 2.0 9.1 4 23
r 0.5504 7 8 tcp 1040 ------- 2 2.0 9.1 5 24
+ 0.5504 8 9 tcp 1040 ------- 2 2.0 9.1 5 24
- 0.55056 0 1 tcp 1040 ------- 1 0.0 9.0 4 31
r 0.55224 7 6 ack 40 ------- 3 9.2 3.0 3 26
+ 0.55224 6 5 ack 40 ------- 3 9.2 3.0 3 26
- 0.55224 6 5 ack 40 ------- 3 9.2 3.0 3 26
r 0.55456 7 8 tcp 1040 ------- 2 2.0 9.1 6 25
+ 0.55456 8 9 tcp 1040 ------- 2 2.0 9.1 6 25
r 0.55472 1 0 ack 40 ------- 1 9.0 0.0 2 21
+ 0.55472 0 1 tcp 1040 ------- 1 0.0 9.0 5 32
+ 0.55472 0 1 tcp 1040 ------- 1 0.0 9.0 6 33
- 0.55472 0 1 tcp 1040 ------- 1 0.0 9.0 5 32
r 0.55688 9 8 ack 40 ------- 3 9.2 3.0 6 29
+ 0.55688 8 7 ack 40 ------- 3 9.2 3.0 6 29
- 0.55688 8 7 ack 40 ------- 3 9.2 3.0 6 29
r 0.55872 8 7 ack 40 ------- 3 9.2 3.0 5 28
+ 0.55872 7 6 ack 40 ------- 3 9.2 3.0 5 28
- 0.55872 7 6 ack 40 ------- 3 9.2 3.0 5 28
- 0.55872 8 9 tcp 1040 ------- 2 2.0 9.1 5 24
- 0.55888 0 1 tcp 1040 ------- 1 0.0 9.0 6 33
r 0.56056 0 1 tcp 1040 ------- 1 0.0 9.0 3 30
+ 0.56056 1 2 tcp 1040 ------- 1 0.0 9.0 3 30
- 0.56056 1 2 tcp 1040 ------- 1 0.0 9.0 3 30
r 0.56056 7 6 ack 40 ------- 3 9.2 3.0 4 27
+ 0.56056 6 5 ack 40 ------- 3 9.2 3.0 4 27
- 0.56056 6 5 ack 40 ------- 3 9.2 3.0 4 27
r 0.5624 6 5 ack 40 ------- 3 9.2 3.0 3 26
+ 0.5624 5 4 ack 40 ------- 3 9.2 3.0 3 26
- 0.5624 5 4 ack 40 ------- 3 9.2 3.0 3 26
r 0.56472 0 1 tcp 1040 ------- 1 0.0 9.0 4 31
+ 0.56472 1 2 tcp 1040 ------- 1 0.0 9.0 4 31
- 0.56472 1 2 tcp 1040 ------- 1 0.0 9.0 4 31
- 0.56704 8 9 tcp 1040 ------- 2 2.0 9.1 6 25
r 0.56704 8 7 ack 40 ------- 3 9.2 3.0 6 29
+ 0.56704 7 6 ack 40 ------- 3 9.2 3.0 6 29
- 0.56704 7 6 ack 40 ------- 3 9.2 3.0 6 29
r 0.56888 0 1 tcp 1040 ------- 1 0.0 9.0 5 32
+ 0.56888 1 2 tcp 1040 ------- 1 0.0 9.0 5 32
r 0.56888 7 6 ack 40 ------- 3 9.2 3.0 5 28
+ 0.56888 6 5 ack 40 ------- 3 9.2 3.0 5 28
- 0.56888 6 5 ack 40 ------- 3 9.2 3.0 5 28
- 0.56888 1 2 tcp 1040 ------- 1 0.0 9.0 5 32
r 0.5704 8 9 tcp 1040 ------- 2 2.0 9.1 3 22
+ 0.5704 9 8 ack 40 ------- 2 9.1 2.0 3 34
- 0.5704 9 8 ack 40 ------- 2 9.1 2.0 3 34
r 0.57072 6 5 ack 40 ------- 3 9.2 3.0 4 27
+ 0.57072 5 4 ack 40 ------- 3 9.2 3.0 4 27
- 0.57072 5 4 ack 40 ------- 3 9.2 3.0 4 27
r 0.57256 5 4 ack 40 ------- 3 9.2 3.0 3 26
+ 0.57256 4 3 ack 40 ------- 3 9.2 3.0 3 26
- 0.57256 4 3 ack 40 ------- 3 9.2 3.0 3 26
r 0.57304 0 1 tcp 1040 ------- 1 0.0 9.0 6 33
+ 0.57304 1 2 tcp 1040 ------- 1 0.0 9.0 6 33
- 0.57304 1 2 tcp 1040 ------- 1 0.0 9.0 6 33
r 0.57472 1 2 tcp 1040 ------- 1 0.0 9.0 3 30
+ 0.57472 2 3 tcp 1040 ------- 1 0.0 9.0 3 30
- 0.57472 2 3 tcp 1040 ------- 1 0.0 9.0 3 30
r 0.5772 7 6 ack 40 ------- 3 9.2 3.0 6 29
+ 0.5772 6 5 ack 40 ------- 3 9.2 3.0 6 29
- 0.5772 6 5 ack 40 ------- 3 9.2 3.0 6 29
r 0.57872 8 9 tcp 1040 ------- 2 2.0 9.1 4 23
+ 0.57872 9 8 ack 40 ------- 2 9.1 2.0 4 35
- 0.57872 9 8 ack 40 ------- 2 9.1 2.0 4 35
r 0.57888 1 2 tcp 1040 ------- 1 0.0 9.0 4 31
+ 0.57888 2 3 tcp 1040 ------- 1 0.0 9.0 4 31
- 0.57888 2 3 tcp 1040 ------- 1 0.0 9.0 4 31
r 0.57904 6 5 ack 40 ------- 3 9.2 3.0 5 28
+ 0.57904 5 4 ack 40 ------- 3 9.2 3.0 5 28
- 0.57904 5 4 ack 40 ------- 3 9.2 3.0 5 28
r 0.58088 5 4 ack 40 ------- 3 9.2 3.0 4 27
+ 0.58088 4 3 ack 40 ------- 3 9.2 3.0 4 27
- 0.58088 4 3 ack 40 ------- 3 9.2 3.0 4 27
r 0.58272 4 3 ack 40 ------- 3 9.2 3.0 3 26
+ 0.58272 3 4 tcp 1040 ------- 3 3.0 9.2 7 36
- 0.58272 3 4 tcp 1040 ------- 3 3.0 9.2 7 36
+ 0.58272 3 4 tcp 1040 ------- 3 3.0 9.2 8 37
r 0.58304 1 2 tcp 1040 ------- 1 0.0 9.0 5 32
+ 0.58304 2 3 tcp 1040 ------- 1 0.0 9.0 5 32
- 0.58304 2 3 tcp 1040 ------- 1 0.0 9.0 5 32
- 0.58688 3 4 tcp 1040 ------- 3 3.0 9.2 8 37
r 0.58704 8 9 tcp 1040 ------- 2 2.0 9.1 5 24
+ 0.58704 9 8 ack 40 ------- 2 9.1 2.0 5 38
- 0.58704 9 8 ack 40 ------- 2 9.1 2.0 5 38
r 0.5872 1 2 tcp 1040 ------- 1 0.0 9.0 6 33
+ 0.5872 2 3 tcp 1040 ------- 1 0.0 9.0 6 33
- 0.5872 2 3 tcp 1040 ------- 1 0.0 9.0 6 33
r 0.58736 6 5 ack 40 ------- 3 9.2 3.0 6 29
+ 0.58736 5 4 ack 40 ------- 3 9.2 3.0 6 29
- 0.58736 5 4 ack 40 ------- 3 9.2 3.0 6 29
r 0.58888 2 3 tcp 1040 ------- 1 0.0 9.0 3 30
+ 0.58888 3 4 tcp 1040 ------- 1 0.0 9.0 3 30
r 0.5892 5 4 ack 40 ------- 3 9.2 3.0 5 28
+ 0.5892 4 3 ack 40 ------- 3 9.2 3.0 5 28
- 0.5892 4 3 ack 40 ------- 3 9.2 3.0 5 28
r 0.59072 9 8 ack 40 ------- 2 9.1 2.0 3 34
+ 0.59072 8 7 ack 40 ------- 2 9.1 2.0 3 34
- 0.59072 8 7 ack 40 ------- 2 9.1 2.0 3 34
r 0.59104 4 3 ack 40 ------- 3 9.2 3.0 4 27
+ 0.59104 3 4 tcp 1040 ------- 3 3.0 9.2 9 39
+ 0.59104 3 4 tcp 1040 ------- 3 3.0 9.2 10 40
- 0.59104 3 4 tcp 1040 ------- 1 0.0 9.0 3 30
r 0.59304 2 3 tcp 1040 ------- 1 0.0 9.0 4 31
+ 0.59304 3 4 tcp 1040 ------- 1 0.0 9.0 4 31
- 0.5952 3 4 tcp 1040 ------- 3 3.0 9.2 9 39
r 0.59536 8 9 tcp 1040 ------- 2 2.0 9.1 6 25
+ 0.59536 9 8 ack 40 ------- 2 9.1 2.0 6 41
- 0.59536 9 8 ack 40 ------- 2 9.1 2.0 6 41
r 0.59688 3 4 tcp 1040 ------- 3 3.0 9.2 7 36