V -t * -v 1.0a5 -a 0
A -t * -n 1 -p 0 -o 0x7fffffff -c 30 -a 1
A -t * -h 1 -m 1073741823 -s 0
c -t * -i 1 -n Blue
c -t * -i 2 -n Red
c -t * -i 3 -n Yellow
n -t * -a 8 -s 8 -S UP -v circle -c black -i black
n -t * -a 4 -s 4 -S UP -v circle -c black -i black
n -t * -a 0 -s 0 -S UP -v circle -c black -i black
n -t * -a 9 -s 9 -S UP -v circle -c black -i black
n -t * -a 5 -s 5 -S UP -v circle -c black -i black
n -t * -a 1 -s 1 -S UP -v circle -c black -i black
n -t * -a 6 -s 6 -S UP -v circle -c black -i black
n -t * -a 2 -s 2 -S UP -v circle -c black -i black
n -t * -a 7 -s 7 -S UP -v circle -c black -i black
n -t * -a 3 -s 3 -S UP -v circle -c black -i black
l -t * -s 0 -d 1 -S UP -r 2000000 -D 0.01 -c black -o right
l -t * -s 1 -d 2 -S UP -r 2000000 -D 0.01 -c black -o right
l -t * -s 2 -d 3 -S UP -r 2000000 -D 0.01 -c black -o right
l -t * -s 3 -d 4 -S UP -r 2000000 -D 0.01 -c black -o right
l -t * -s 4 -d 5 -S UP -r 2000000 -D 0.01 -c black -o right
l -t * -s 5 -d 6 -S UP -r 2000000 -D 0.01 -c black -o right
l -t * -s 6 -d 7 -S UP -r 2000000 -D 0.01 -c black -o right
l -t * -s 7 -d 8 -S UP -r 2000000 -D 0.01 -c black -o right
l -t * -s 8 -d 9 -S UP -r 1000000 -D 0.02 -c black -o right
q -t * -s 9 -d 8 -a 0.5
q -t * -s 8 -d 9 -a 0.5
+ -t 0.1 -s 0 -d 1 -p cbr -e 1000 -c 1 -i 0 -a 1 -x {0.0 9.0 0 ------- null}
- -t 0.1 -s 0 -d 1 -p cbr -e 1000 -c 1 -i 0 -a 1 -x {0.0 9.0 0 ------- null}
h -t 0.1 -s 0 -d 1 -p cbr -e 1000 -c 1 -i 0 -a 1 -x {0.0 9.0 -1 ------- null}
+ -t 0.1 -s 2 -d 3 -p cbr -e 1000 -c 2 -i 1 -a 2 -x {2.0 9.1 0 ------- null}
- -t 0.1 -s 2 -d 3 -p cbr -e 1000 -c 2 -i 1 -a 2 -x {2.0 9.1 0 ------- null}
h -t 0.1 -s 2 -d 3 -p cbr -e 1000 -c 2 -i 1 -a 2 -x {2.0 9.1 -1 ------- null}
+ -t 0.1 -s 3 -d 4 -p cbr -e 1000 -c 3 -i 2 -a 3 -x {3.0 9.2 0 ------- null}
- -t 0.1 -s 3 -d 4 -p cbr -e 1000 -c 3 -i 2 -a 3 -x {3.0 9.2 0 ------- null}
h -t 0.1 -s 3 -d 4 -p cbr -e 1000 -c 3 -i 2 -a 3 -x {3.0 9.2 -1 ------- null}
+ -t 0.11 -s 0 -d 1 -p cbr -e 1000 -c 1 -i 3 -a 1 -x {0.0 9.0 1 ------- null}
- -t 0.11 -s 0 -d 1 -p cbr -e 1000 -c 1 -i 3 -a 1 -x {0.0 9.0 1 ------- null}
h -t 0.11 -s 0 -d 1 -p cbr -e 1000 -c 1 -i 3 -a 1 -x {0.0 9.0 -1 ------- null}
+ -t 0.11 -s 2 -d 3 -p cbr -e 1000 -c 2 -i 4 -a 2 -x {2.0 9.1 1 ------- null}
- -t 0.11 -s 2 -d 3 -p cbr -e 1000 -c 2 -i 4 -a 2 -x {2.0 9.1 1 ------- null}
h -t 0.11 -s 2 -d 3 -p cbr -e 1000 -c 2 -i 4 -a 2 -x {2.0 9.1 -1 ------- null}
+ -t 0.11 -s 3 -d 4 -p cbr -e 1000 -c 3 -i 5 -a 3 -x {3.0 9.2 1 ------- null}
- -t 0.11 -s 3 -d 4 -p cbr -e 1000 -c 3 -i 5 -a 3 -x {3.0 9.2 1 ------- null}
h -t 0.11 -s 3 -d 4 -p cbr -e 1000 -c 3 -i 5 -a 3 -x {3.0 9.2 -1 ------- null}
r -t 0.114 -s 0 -d 1 -p cbr -e 1000 -c 1 -i 0 -a 1 -x {0.0 9.0 0 ------- null}
+ -t 0.114 -s 1 -d 2 -p cbr -e 1000 -c 1 -i 0 -a 1 -x {0.0 9.0 0 ------- null}
- -t 0.114 -s 1 -d 2 -p cbr -e 1000 -c 1 -i 0 -a 1 -x {0.0 9.0 0 ------- null}
h -t 0.114 -s 1 -d 2 -p cbr -e 1000 -c 1 -i 0 -a 1 -x {0.0 9.0 -1 ------- null}
r -t 0.114 -s 2 -d 3 -p cbr -e 1000 -c 2 -i 1 -a 2 -x {2.0 9.1 0 ------- null}
+ -t 0.114 -s 3 -d 4 -p cbr -e 1000 -c 2 -i 1 -a 2 -x {2.0 9.1 0 ------- null}
r -t 0.114 -s 3 -d 4 -p cbr -e 1000 -c 3 -i 2 -a 3 -x {3.0 9.2 0 ------- null}
+ -t 0.114 -s 4 -d 5 -p cbr -e 1000 -c 3 -i 2 -a 3 -x {3.0 9.2 0 ------- null}
- -t 0.114 -s 4 -d 5 -p cbr -e 1000 -c 3 -i 2 -a 3 -x {3.0 9.2 0 ------- null}
h -t 0.114 -s 4 -d 5 -p cbr -e 1000 -c 3 -i 2 -a 3 -x {3.0 9.2 -1 ------- null}
- -t 0.114 -s 3 -d 4 -p cbr -e 1000 -c 2 -i 1 -a 2 -x {2.0 9.1 0 ------- null}
h -t 0.114 -s 3 -d 4 -p cbr -e 1000 -c 2 -i 1 -a 2 -x {2.0 9.1 -1 ------- null}
+ -t 0.12 -s 0 -d 1 -p cbr -e 1000 -c 1 -i 6 -a 1 -x {0.0 9.0 2 ------- null}
- -t 0.12 -s 0 -d 1 -p cbr -e 1000 -c 1 -i 6 -a 1 -x {0.0 9.0 2 ------- null}
h -t 0.12 -s 0 -d 1 -p cbr -e 1000 -c 1 -i 6 -a 1 -x {0.0 9.0 -1 ------- null}
+ -t 0.12 -s 2 -d 3 -p cbr -e 1000 -c 2 -i 7 -a 2 -x {2.0 9.1 2 ------- null}
- -t 0.12 -s 2 -d 3 -p cbr -e 1000 -c 2 -i 7 -a 2 -x {2.0 9.1 2 ------- null}
h -t 0.12 -s 2 -d 3 -p cbr -e 1000 -c 2 -i 7 -a 2 -x {2.0 9.1 -1 ------- null}
+ -t 0.12 -s 3 -d 4 -p cbr -e 1000 -c 3 -i 8 -a 3 -x {3.0 9.2 2 ------- null}
- -t 0.12 -s 3 -d 4 -p cbr -e 1000 -c 3 -i 8 -a 3 -x {3.0 9.2 2 ------- null}
h -t 0.12 -s 3 -d 4 -p cbr -e 1000 -c 3 -i 8 -a 3 -x {3.0 9.2 -1 ------- null}
r -t 0.124 -s 0 -d 1 -p cbr -e 1000 -c 1 -i 3 -a 1 -x {0.0 9.0 1 ------- null}
+ -t 0.124 -s 1 -d 2 -p cbr -e 1000 -c 1 -i 3 -a 1 -x {0.0 9.0 1 ------- null}
- -t 0.124 -s 1 -d 2 -p cbr -e 1000 -c 1 -i 3 -a 1 -x {0.0 9.0 1 ------- null}
h -t 0.124 -s 1 -d 2 -p cbr -e 1000 -c 1 -i 3 -a 1 -x {0.0 9.0 -1 ------- null}
r -t 0.124 -s 2 -d 3 -p cbr -e 1000 -c 2 -i 4 -a 2 -x {2.0 9.1 1 ------- null}
+ -t 0.124 -s 3 -d 4 -p cbr -e 1000 -c 2 -i 4 -a 2 -x {2.0 9.1 1 ------- null}
r -t 0.124 -s 3 -d 4 -p cbr -e 1000 -c 3 -i 5 -a 3 -x {3.0 9.2 1 ------- null}
+ -t 0.124 -s 4 -d 5 -p cbr -e 1000 -c 3 -i 5 -a 3 -x {3.0 9.2 1 ------- null}
- -t 0.124 -s 4 -d 5 -p cbr -e 1000 -c 3 -i 5 -a 3 -x {3.0 9.2 1 ------- null}
h -t 0.124 -s 4 -d 5 -p cbr -e 1000 -c 3 -i 5 -a 3 -x {3.0 9.2 -1 ------- null}
- -t 0.124 -s 3 -d 4 -p cbr -e 1000 -c 2 -i 4 -a 2 -x {2.0 9.1 1 ------- null}
h -t 0.124 -s 3 -d 4 -p cbr -e 1000 -c 2 -i 4 -a 2 -x {2.0 9.1 -1 ------- null}
r -t 0.128 -s 1 -d 2 -p cbr -e 1000 -c 1 -i 0 -a 1 -x {0.0 9.0 0 ------- null}
+ -t 0.128 -s 2 -d 3 -p cbr -e 1000 -c 1 -i 0 -a 1 -x {0.0 9.0 0 ------- null}
- -t 0.128 -s 2 -d 3 -p cbr -e 1000 -c 1 -i 0 -a 1 -x {0.0 9.0 0 ------- null}
h -t 0.128 -s 2 -d 3 -p cbr -e 1000 -c 1 -i 0 -a 1 -x {0.0 9.0 -1 ------- null}
r -t 0.128 -s 4 -d 5 -p cbr -e 1000 -c 3 -i 2 -a 3 -x {3.0 9.2 0 ------- null}
+ -t 0.128 -s 5 -d 6 -p cbr -e 1000 -c 3 -i 2 -a 3 -x {3.0 9.2 0 ------- null}
- -t 0.128 -s 5 -d 6 -p cbr -e 1000 -c 3 -i 2 -a 3 -x {3.0 9.2 0 ------- null}
h -t 0.128 -s 5 -d 6 -p cbr -e 1000 -c 3 -i 2 -a 3 -x {3.0 9.2 -1 ------- null}
r -t 0.128 -s 3 -d 4 -p cbr -e 1000 -c 2 -i 1 -a 2 -x {2.0 9.1 0 ------- null}
+ -t 0.128 -s 4 -d 5 -p cbr -e 1000 -c 2 -i 1 -a 2 -x {2.0 9.1 0 ------- null}
- -t 0.128 -s 4 -d 5 -p cbr -e 1000 -c 2 -i 1 -a 2 -x {2.0 9.1 0 ------- null}
h -t 0.128 -s 4 -d 5 -p cbr -e 1000 -c 2 -i 1 -a 2 -x {2.0 9.1 -1 ------- null}
+ -t 0.13 -s 0 -d 1 -p cbr -e 1000 -c 1 -i 9 -a 1 -x {0.0 9.0 3 ------- null}
- -t 0.13 -s 0 -d 1 -p cbr -e 1000 -c 1 -i 9 -a 1 -x {0.0 9.0 3 ------- null}
h -t 0.13 -s 0 -d 1 -p cbr -e 1000 -c 1 -i 9 -a 1 -x {0.0 9.0 -1 ------- null}
+ -t 0.13 -s 2 -d 3 -p cbr -e 1000 -c 2 -i 10 -a 2 -x {2.0 9.1 3 ------- null}
+ -t 0.13 -s 3 -d 4 -p cbr -e 1000 -c 3 -i 11 -a 3 -x {3.0 9.2 3 ------- null}
- -t 0.13 -s 3 -d 4 -p cbr -e 1000 -c 3 -i 11 -a 3 -x {3.0 9.2 3 ------- null}
h -t 0.13 -s 3 -d 4 -p cbr -e 1000 -c 3 -i 11 -a 3 -x {3.0 9.2 -1 ------- null}
- -t 0.132 -s 2 -d 3 -p cbr -e 1000 -c 2 -i 10 -a 2 -x {2.0 9.1 3 ------- null}
h -t 0.132 -s 2 -d 3 -p cbr -e 1000 -c 2 -i 10 -a 2 -x {2.0 9.1 -1 ------- null}
r -t 0.134 -s 0 -d 1 -p cbr -e 1000 -c 1 -i 6 -a 1 -x {0.0 9.0 2 ------- null}
+ -t 0.134 -s 1 -d 2 -p cbr -e 1000 -c 1 -i 6 -a 1 -x {0.0 9.0 2 ------- null}
- -t 0.134 -s 1 -d 2 -p cbr -e 1000 -c 1 -i 6 -a 1 -x {0.0 9.0 2 ------- null}
h -t 0.134 -s 1 -d 2 -p cbr -e 1000 -c 1 -i 6 -a 1 -x {0.0 9.0 -1 ------- null}
r -t 0.134 -s 2 -d 3 -p cbr -e 1000 -c 2 -i 7 -a 2 -x {2.0 9.1 2 ------- null}
+ -t 0.134 -s 3 -d 4 -p cbr -e 1000 -c 2 -i 7 -a 2 -x {2.0 9.1 2 ------- null}
r -t 0.134 -s 3 -d 4 -p cbr -e 1000 -c 3 -i 8 -a 3 -x {3.0 9.2 2 ------- null}
+ -t 0.134 -s 4 -d 5 -p cbr -e 1000 -c 3 -i 8 -a 3 -x {3.0 9.2 2 ------- null}
- -t 0.134 -s 4 -d 5 -p cbr -e 1000 -c 3 -i 8 -a 3 -x {3.0 9.2 2 ------- null}
h -t 0.134 -s 4 -d 5 -p cbr -e 1000 -c 3 -i 8 -a 3 -x {3.0 9.2 -1 ------- null}
- -t 0.134 -s 3 -d 4 -p cbr -e 1000 -c 2 -i 7 -a 2 -x {2.0 9.1 2 ------- null}
h -t 0.134 -s 3 -d 4 -p cbr -e 1000 -c 2 -i 7 -a 2 -x {2.0 9.1 -1 ------- null}
r -t 0.138 -s 1 -d 2 -p cbr -e 1000 -c 1 -i 3 -a 1 -x {0.0 9.0 1 ------- null}
+ -t 0.138 -s 2 -d 3 -p cbr -e 1000 -c 1 -i 3 -a 1 -x {0.0 9.0 1 ------- null}
- -t 0.138 -s 2 -d 3 -p cbr -e 1000 -c 1 -i 3 -a 1 -x {0.0 9.0 1 ------- null}
h -t 0.138 -s 2 -d 3 -p cbr -e 1000 -c 1 -i 3 -a 1 -x {0.0 9.0 -1 ------- null}
r -t 0.138 -s 4 -d 5 -p cbr -e 1000 -c 3 -i 5 -a 3 -x {3.0 9.2 1 ------- null}
+ -t 0.138 -s 5 -d 6 -p cbr -e 1000 -c 3 -i 5 -a 3 -x {3.0 9.2 1 ------- null}
- -t 0.138 -s 5 -d 6 -p cbr -e 1000 -c 3 -i 5 -a 3 -x {3.0 9.2 1 ------- null}
h -t 0.138 -s 5 -d 6 -p cbr -e 1000 -c 3 -i 5 -a 3 -x {3.0 9.2 -1 ------- null}
r -t 0.138 -s 3 -d 4 -p cbr -e 1000 -c 2 -i 4 -a 2 -x {2.0 9.1 1 ------- null}
+ -t 0.138 -s 4 -d 5 -p cbr -e 1000 -c 2 -i 4 -a 2 -x {2.0 9.1 1 ------- null}
- -t 0.138 -s 4 -d 5 -p cbr -e 1000 -c 2 -i 4 -a 2 -x {2.0 9.1 1 ------- null}
h -t 0.138 -s 4 -d 5 -p cbr -e 1000 -c 2 -i 4 -a 2 -x {2.0 9.1 -1 ------- null}
+ -t 0.14 -s 0 -d 1 -p cbr -e 1000 -c 1 -i 12 -a 1 -x {0.0 9.0 4 ------- null}
- -t 0.14 -s 0 -d 1 -p cbr -e 1000 -c 1 -i 12 -a 1 -x {0.0 9.0 4 ------- null}
h -t 0.14 -s 0 -d 1 -p cbr -e 1000 -c 1 -i 12 -a 1 -x {0.0 9.0 -1 ------- null}
+ -t 0.14 -s 2 -d 3 -p cbr -e 1000 -c 2 -i 13 -a 2 -x {2.0 9.1 4 ------- null}
+ -t 0.14 -s 3 -d 4 -p cbr -e 1000 -c 3 -i 14 -a 3 -x {3.0 9.2 4 ------- null}
- -t 0.14 -s 3 -d 4 -p cbr -e 1000 -c 3 -i 14 -a 3 -x {3.0 9.2 4 ------- null}
h -t 0.14 -s 3 -d 4 -p cbr -e 1000 -c 3 -i 14 -a 3 -x {3.0 9.2 -1 ------- null}
r -t 0.142 -s 2 -d 3 -p cbr -e 1000 -c 1 -i 0 -a 1 -x {0.0 9.0 0 ------- null}
+ -t 0.142 -s 3 -d 4 -p cbr -e 1000 -c 1 -i 0 -a 1 -x {0.0 9.0 0 ------- null}
r -t 0.142 -s 5 -d 6 -p cbr -e 1000 -c 3 -i 2 -a 3 -x {3.0 9.2 0 ------- null}
+ -t 0.142 -s 6 -d 7 -p cbr -e 1000 -c 3 -i 2 -a 3 -x {3.0 9.2 0 ------- null}
- -t 0.142 -s 6 -d 7 -p cbr -e 1000 -c 3 -i 2 -a 3 -x {3.0 9.2 0 ------- null}
h -t 0.142 -s 6 -d 7 -p cbr -e 1000 -c 3 -i 2 -a 3 -x {3.0 9.2 -1 ------- null}
r -t 0.142 -s 4 -d 5 -p cbr -e 1000 -c 2 -i 1 -a 2 -x {2.0 9.1 0 ------- null}
+ -t 0.142 -s 5 -d 6 -p cbr -e 1000 -c 2 -i 1 -a 2 -x {2.0 9.1 0 ------- null}
- -t 0.142 -s 2 -d 3 -p cbr -e 1000 -c 2 -i 13 -a 2 -x {2.0 9.1 4 ------- null}
h -t 0.142 -s 2 -d 3 -p cbr -e 1000 -c 2 -i 13 -a 2 -x {2.0 9.1 -1 ------- null}
- -t 0.142 -s 5 -d 6 -p cbr -e 1000 -c 2 -i 1 -a 2 -x {2.0 9.1 0 ------- null}
h -t 0.142 -s 5 -d 6 -p cbr -e 1000 -c 2 -i 1 -a 2 -x {2.0 9.1 -1 ------- null}
r -t 0.144 -s 0 -d 1 -p cbr -e 1000 -c 1 -i 9 -a 1 -x {0.0 9.0 3 ------- null}
+ -t 0.144 -s 1 -d 2 -p cbr -e 1000 -c 1 -i 9 -a 1 -x {0.0 9.0 3 ------- null}
- -t 0.144 -s 1 -d 2 -p cbr -e 1000 -c 1 -i 9 -a 1 -x {0.0 9.0 3 ------- null}
h -t 0.144 -s 1 -d 2 -p cbr -e 1000 -c 1 -i 9 -a 1 -x {0.0 9.0 -1 ------- null}
r -t 0.144 -s 3 -d 4 -p cbr -e 1000 -c 3 -i 11 -a 3 -x {3.0 9.2 3 ------- null}
+ -t 0.144 -s 4 -d 5 -p cbr -e 1000 -c 3 -i 11 -a 3 -x {3.0 9.2 3 ------- null}
- -t 0.144 -s 4 -d 5 -p cbr -e 1000 -c 3 -i 11 -a 3 -x {3.0 9.2 3 ------- null}
h -t 0.144 -s 4 -d 5 -p cbr -e 1000 -c 3 -i 11 -a 3 -x {3.0 9.2 -1 ------- null}
- -t 0.144 -s 3 -d 4 -p cbr -e 1000 -c 1 -i 0 -a 1 -x {0.0 9.0 0 ------- null}
h -t 0.144 -s 3 -d 4 -p cbr -e 1000 -c 1 -i 0 -a 1 -x {0.0 9.0 -1 ------- null}
r -t 0.146 -s 2 -d 3 -p cbr -e 1000 -c 2 -i 10 -a 2 -x {2.0 9.1 3 ------- null}
+ -t 0.146 -s 3 -d 4 -p cbr -e 1000 -c 2 -i 10 -a 2 -x {2.0 9.1 3 ------- null}
r -t 0.148 -s 1 -d 2 -p cbr -e 1000 -c 1 -i 6 -a 1 -x {0.0 9.0 2 ------- null}
+ -t 0.148 -s 2 -d 3 -p cbr -e 1000 -c 1 -i 6 -a 1 -x {0.0 9.0 2 ------- null}
- -t 0.148 -s 2 -d 3 -p cbr -e 1000 -c 1 -i 6 -a 1 -x {0.0 9.0 2 ------- null}
h -t 0.148 -s 2 -d 3 -p cbr -e 1000 -c 1 -i 6 -a 1 -x {0.0 9.0 -1 ------- null}
r -t 0.148 -s 4 -d 5 -p cbr -e 1000 -c 3 -i 8 -a 3 -x {3.0 9.2 2 ------- null}
+ -t 0.148 -s 5 -d 6 -p cbr -e 1000 -c 3 -i 8 -a 3 -x {3.0 9.2 2 ------- null}
- -t 0.148 -s 5 -d 6 -p cbr -e 1000 -c 3 -i 8 -a 3 -x {3.0 9.2 2 ------- null}
h -t 0.148 -s 5 -d 6 -p cbr -e 1000 -c 3 -i 8 -a 3 -x {3.0 9.2 -1 ------- null}
r -t 0.148 -s 3 -d 4 -p cbr -e 1000 -c 2 -i 7 -a 2 -x {2.0 9.1 2 ------- null}
+ -t 0.148 -s 4 -d 5 -p cbr -e 1000 -c 2 -i 7 -a 2 -x {2.0 9.1 2 ------- null}
- -t 0.148 -s 4 -d 5 -p cbr -e 1000 -c 2 -i 7 -a 2 -x {2.0 9.1 2 ------- null}
h -t 0.148 -s 4 -d 5 -p cbr -e 1000 -c 2 -i 7 -a 2 -x {2.0 9.1 -1 ------- null}
- -t 0.148 -s 3 -d 4 -p cbr -e 1000 -c 2 -i 10 -a 2 -x {2.0 9.1 3 ------- null}
h -t 0.148 -s 3 -d 4 -p cbr -e 1000 -c 2 -i 10 -a 2 -x {2.0 9.1 -1 ------- null}
+ -t 0.15 -s 0 -d 1 -p cbr -e 1000 -c 1 -i 15 -a 1 -x {0.0 9.0 5 ------- null}
- -t 0.15 -s 0 -d 1 -p cbr -e 1000 -c 1 -i 15 -a 1 -x {0.0 9.0 5 ------- null}
h -t 0.15 -s 0 -d 1 -p cbr -e 1000 -c 1 -i 15 -a 1 -x {0.0 9.0 -1 ------- null}
+ -t 0.15 -s 2 -d 3 -p cbr -e 1000 -c 2 -i 16 -a 2 -x {2.0 9.1 5 ------- null}
+ -t 0.15 -s 3 -d 4 -p cbr -e 1000 -c 3 -i 17 -a 3 -x {3.0 9.2 5 ------- null}
r -t 0.152 -s 2 -d 3 -p cbr -e 1000 -c 1 -i 3 -a 1 -x {0.0 9.0 1 ------- null}
+ -t 0.152 -s 3 -d 4 -p cbr -e 1000 -c 1 -i 3 -a 1 -x {0.0 9.0 1 ------- null}
r -t 0.152 -s 5 -d 6 -p cbr -e 1000 -c 3 -i 5 -a 3 -x {3.0 9.2 1 ------- null}
+ -t 0.152 -s 6 -d 7 -p cbr -e 1000 -c 3 -i 5 -a 3 -x {3.0 9.2 1 ------- null}
- -t 0.152 -s 6 -d 7 -p cbr -e 1000 -c 3 -i 5 -a 3 -x {3.0 9.2 1 ------- null}
h -t 0.152 -s 6 -d 7 -p cbr -e 1000 -c 3 -i 5 -a 3 -x {3.0 9.2 -1 ------- null}
r -t 0.152 -s 4 -d 5 -p cbr -e 1000 -c 2 -i 4 -a 2 -x {2.0 9.1 1 ------- null}
+ -t 0.152 -s 5 -d 6 -p cbr -e 1000 -c 2 -i 4 -a 2 -x {2.0 9.1 1 ------- null}
- -t 0.152 -s 2 -d 3 -p cbr -e 1000 -c 2 -i 16 -a 2 -x {2.0 9.1 5 ------- null}
h -t 0.152 -s 2 -d 3 -p cbr -e 1000 -c 2 -i 16 -a 2 -x {2.0 9.1 -1 ------- null}
- -t 0.152 -s 5 -d 6 -p cbr -e 1000 -c 2 -i 4 -a 2 -x {2.0 9.1 1 ------- null}
h -t 0.152 -s 5 -d 6 -p cbr -e 1000 -c 2 -i 4 -a 2 -x {2.0 9.1 -1 ------- null}
- -t 0.152 -s 3 -d 4 -p cbr -e 1000 -c 3 -i 17 -a 3 -x {3.0 9.2 5 ------- null}
h -t 0.152 -s 3 -d 4 -p cbr -e 1000 -c 3 -i 17 -a 3 -x {3.0 9.2 -1 ------- null}
r -t 0.154 -s 0 -d 1 -p cbr -e 1000 -c 1 -i 12 -a 1 -x {0.0 9.0 4 ------- null}
+ -t 0.154 -s 1 -d 2 -p cbr -e 1000 -c 1 -i 12 -a 1 -x {0.0 9.0 4 ------- null}
- -t 0.154 -s 1 -d 2 -p cbr -e 1000 -c 1 -i 12 -a 1 -x {0.0 9.0 4 ------- null}
h -t 0.154 -s 1 -d 2 -p cbr -e 1000 -c 1 -i 12 -a 1 -x {0.0 9.0 -1 ------- null}
r -t 0.154 -s 3 -d 4 -p cbr -e 1000 -c 3 -i 14 -a 3 -x {3.0 9.2 4 ------- null}
+ -t 0.154 -s 4 -d 5 -p cbr -e 1000 -c 3 -i 14 -a 3 -x {3.0 9.2 4 ------- null}
- -t 0.154 -s 4 -d 5 -p cbr -e 1000 -c 3 -i 14 -a 3 -x {3.0 9.2 4 ------- null}
h -t 0.154 -s 4 -d 5 -p cbr -e 1000 -c 3 -i 14 -a 3 -x {3.0 9.2 -1 ------- null}
r -t 0.156 -s 6 -d 7 -p cbr -e 1000 -c 3 -i 2 -a 3 -x {3.0 9.2 0 ------- null}
+ -t 0.156 -s 7 -d 8 -p cbr -e 1000 -c 3 -i 2 -a 3 -x {3.0 9.2 0 ------- null}
- -t 0.156 -s 7 -d 8 -p cbr -e 1000 -c 3 -i 2 -a 3 -x {3.0 9.2 0 ------- null}
h -t 0.156 -s 7 -d 8 -p cbr -e 1000 -c 3 -i 2 -a 3 -x {3.0 9.2 -1 ------- null}
r -t 0.156 -s 2 -d 3 -p cbr -e 1000 -c 2 -i 13 -a 2 -x {2.0 9.1 4 ------- null}
+ -t 0.156 -s 3 -d 4 -p cbr -e 1000 -c 2 -i 13 -a 2 -x {2.0 9.1 4 ------- null}
r -t 0.156 -s 5 -d 6 -p cbr -e 1000 -c 2 -i 1 -a 2 -x {2.0 9.1 0 ------- null}
+ -t 0.156 -s 6 -d 7 -p cbr -e 1000 -c 2 -i 1 -a 2 -x {2.0 9.1 0 ------- null}
- -t 0.156 -s 6 -d 7 -p cbr -e 1000 -c 2 -i 1 -a 2 -x {2.0 9.1 0 ------- null}
h -t 0.156 -s 6 -d 7 -p cbr -e 1000 -c 2 -i 1 -a 2 -x {2.0 9.1 -1 ------- null}
- -t 0.156 -s 3 -d 4 -p cbr -e 1000 -c 1 -i 3 -a 1 -x {0.0 9.0 1 ------- null}
h -t 0.156 -s 3 -d 4 -p cbr -e 1000 -c 1 -i 3 -a 1 -x {0.0 9.0 -1 ------- null}
r -t 0.158 -s 1 -d 2 -p cbr -e 1000 -c 1 -i 9 -a 1 -x {0.0 9.0 3 ------- null}
+ -t 0.158 -s 2 -d 3 -p cbr -e 1000 -c 1 -i 9 -a 1 -x {0.0 9.0 3 ------- null}
- -t 0.158 -s 2 -d 3 -p cbr -e 1000 -c 1 -i 9 -a 1 -x {0.0 9.0 3 ------- null}
h -t 0.158 -s 2 -d 3 -p cbr -e 1000 -c 1 -i 9 -a 1 -x {0.0 9.0 -1 ------- null}
r -t 0.158 -s 4 -d 5 -p cbr -e 1000 -c 3 -i 11 -a 3 -x {3.0 9.2 3 ------- null}
+ -t 0.158 -s 5 -d 6 -p cbr -e 1000 -c 3 -i 11 -a 3 -x {3.0 9.2 3 ------- null}
- -t 0.158 -s 5 -d 6 -p cbr -e 1000 -c 3 -i 11 -a 3 -x {3.0 9.2 3 ------- null}
h -t 0.158 -s 5 -d 6 -p cbr -e 1000 -c 3 -i 11 -a 3 -x {3.0 9.2 -1 ------- null}
r -t 0.158 -s 3 -d 4 -p cbr -e 1000 -c 1 -i 0 -a 1 -x {0.0 9.0 0 ------- null}
+ -t 0.158 -s 4 -d 5 -p cbr -e 1000 -c 1 -i 0 -a 1 -x {0.0 9.0 0 ------- null}
- -t 0.158 -s 4 -d 5 -p cbr -e 1000 -c 1 -i 0 -a 1 -x {0.0 9.0 0 ------- null}
h -t 0.158 -s 4 -d 5 -p cbr -e 1000 -c 1 -i 0 -a 1 -x {0.0 9.0 -1 ------- null}
+ -t 0.16 -s 0 -d 1 -p cbr -e 1000 -c 1 -i 18 -a 1 -x {0.0 9.0 6 ------- null}
- -t 0.16 -s 0 -d 1 -p cbr -e 1000 -c 1 -i 18 -a 1 -x {0.0 9.0 6 ------- null}
h -t 0.16 -s 0 -d 1 -p cbr -e 1000 -c 1 -i 18 -a 1 -x {0.0 9.0 -1 ------- null}
+ -t 0.16 -s 2 -d 3 -p cbr -e 1000 -c 2 -i 19 -a 2 -x {2.0 9.1 6 ------- null}
+ -t 0.16 -s 3 -d 4 -p cbr -e 1000 -c 3 -i 20 -a 3 -x {3.0 9.2 6 ------- null}
- -t 0.16 -s 3 -d 4 -p cbr -e 1000 -c 2 -i 13 -a 2 -x {2.0 9.1 4 ------- null}
h -t 0.16 -s 3 -d 4 -p cbr -e 1000 -c 2 -i 13 -a 2 -x {2.0 9.1 -1 ------- null}
r -t 0.162 -s 2 -d 3 -p cbr -e 1000 -c 1 -i 6 -a 1 -x {0.0 9.0 2 ------- null}
+ -t 0.162 -s 3 -d 4 -p cbr -e 1000 -c 1 -i 6 -a 1 -x {0.0 9.0 2 ------- null}
r -t 0.162 -s 5 -d 6 -p cbr -e 1000 -c 3 -i 8 -a 3 -x {3.0 9.2 2 ------- null}
+ -t 0.162 -s 6 -d 7 -p cbr -e 1000 -c 3 -i 8 -a 3 -x {3.0 9.2 2 ------- null}
- -t 0.162 -s 6 -d 7 -p cbr -e 1000 -c 3 -i 8 -a 3 -x {3.0 9.2 2 ------- null}
h -t 0.162 -s 6 -d 7 -p cbr -e 1000 -c 3 -i 8 -a 3 -x {3.0 9.2 -1 ------- null}
r -t 0.162 -s 4 -d 5 -p cbr -e 1000 -c 2 -i 7 -a 2 -x {2.0 9.1 2 ------- null}
+ -t 0.162 -s 5 -d 6 -p cbr -e 1000 -c 2 -i 7 -a 2 -x {2.0 9.1 2 ------- null}
r -t 0.162 -s 3 -d 4 -p cbr -e 1000 -c 2 -i 10 -a 2 -x {2.0 9.1 3 ------- null}
+ -t 0.162 -s 4 -d 5 -p cbr -e 1000 -c 2 -i 10 -a 2 -x {2.0 9.1 3 ------- null}
- -t 0.162 -s 2 -d 3 -p cbr -e 1000 -c 2 -i 19 -a 2 -x {2.0 9.1 6 ------- null}
h -t 0.162 -s 2 -d 3 -p cbr -e 1000 -c 2 -i 19 -a 2 -x {2.0 9.1 -1 ------- null}
- -t 0.162 -s 5 -d 6 -p cbr -e 1000 -c 2 -i 7 -a 2 -x {2.0 9.1 2 ------- null}
h -t 0.162 -s 5 -d 6 -p cbr -e 1000 -c 2 -i 7 -a 2 -x {2.0 9.1 -1 ------- null}
- -t 0.162 -s 4 -d 5 -p cbr -e 1000 -c 2 -i 10 -a 2 -x {2.0 9.1 3 ------- null}
h -t 0.162 -s 4 -d 5 -p cbr -e 1000 -c 2 -i 10 -a 2 -x {2.0 9.1 -1 ------- null}
r -t 0.164 -s 0 -d 1 -p cbr -e 1000 -c 1 -i 15 -a 1 -x {0.0 9.0 5 ------- null}
+ -t 0.164 -s 1 -d 2 -p cbr -e 1000 -c 1 -i 15 -a 1 -x {0.0 9.0 5 ------- null}
- -t 0.164 -s 1 -d 2 -p cbr -e 1000 -c 1 -i 15 -a 1 -x {0.0 9.0 5 ------- null}
h -t 0.164 -s 1 -d 2 -p cbr -e 1000 -c 1 -i 15 -a 1 -x {0.0 9.0 -1 ------- null}
- -t 0.164 -s 3 -d 4 -p cbr -e 1000 -c 3 -i 20 -a 3 -x {3.0 9.2 6 ------- null}
h -t 0.164 -s 3 -d 4 -p cbr -e 1000 -c 3 -i 20 -a 3 -x {3.0 9.2 -1 ------- null}
r -t 0.166 -s 6 -d 7 -p cbr -e 1000 -c 3 -i 5 -a 3 -x {3.0 9.2 1 ------- null}
+ -t 0.166 -s 7 -d 8 -p cbr -e 1000 -c 3 -i 5 -a 3 -x {3.0 9.2 1 ------- null}
- -t 0.166 -s 7 -d 8 -p cbr -e 1000 -c 3 -i 5 -a 3 -x {3.0 9.2 1 ------- null}
h -t 0.166 -s 7 -d 8 -p cbr -e 1000 -c 3 -i 5 -a 3 -x {3.0 9.2 -1 ------- null}
r -t 0.166 -s 2 -d 3 -p cbr -e 1000 -c 2 -i 16 -a 2 -x {2.0 9.1 5 ------- null}
+ -t 0.166 -s 3 -d 4 -p cbr -e 1000 -c 2 -i 16 -a 2 -x {2.0 9.1 5 ------- null}
r -t 0.166 -s 5 -d 6 -p cbr -e 1000 -c 2 -i 4 -a 2 -x {2.0 9.1 1 ------- null}
+ -t 0.166 -s 6 -d 7 -p cbr -e 1000 -c 2 -i 4 -a 2 -x {2.0 9.1 1 ------- null}
r -t 0.166 -s 3 -d 4 -p cbr -e 1000 -c 3 -i 17 -a 3 -x {3.0 9.2 5 ------- null}
+ -t 0.166 -s 4 -d 5 -p cbr -e 1000 -c 3 -i 17 -a 3 -x {3.0 9.2 5 ------- null}
- -t 0.166 -s 6 -d 7 -p cbr -e 1000 -c 2 -i 4 -a 2 -x {2.0 9.1 1 ------- null}
h -t 0.166 -s 6 -d 7 -p cbr -e 1000 -c 2 -i 4 -a 2 -x {2.0 9.1 -1 ------- null}
- -t 0.166 -s 4 -d 5 -p cbr -e 1000 -c 3 -i 17 -a 3 -x {3.0 9.2 5 ------- null}
h -t 0.166 -s 4 -d 5 -p cbr -e 1000 -c 3 -i 17 -a 3 -x {3.0 9.2 -1 ------- null}
r -t 0.168 -s 1 -d 2 -p cbr -e 1000 -c 1 -i 12 -a 1 -x {0.0 9.0 4 ------- null}
+ -t 0.168 -s 2 -d 3 -p cbr -e 1000 -c 1 -i 12 -a 1 -x {0.0 9.0 4 ------- null}
- -t 0.168 -s 2 -d 3 -p cbr -e 1000 -c 1 -i 12 -a 1 -x {0.0 9.0 4 ------- null}
h -t 0.168 -s 2 -d 3 -p cbr -e 1000 -c 1 -i 12 -a 1 -x {0.0 9.0 -1 ------- null}
r -t 0.168 -s 4 -d 5 -p cbr -e 1000 -c 3 -i 14 -a 3 -x {3.0 9.2 4 ------- null}
+ -t 0.168 -s 5 -d 6 -p cbr -e 1000 -c 3 -i 14 -a 3 -x {3.0 9.2 4 ------- null}
- -t 0.168 -s 5 -d 6 -p cbr -e 1000 -c 3 -i 14 -a 3 -x {3.0 9.2 4 ------- null}
h -t 0.168 -s 5 -d 6 -p cbr -e 1000 -c 3 -i 14 -a 3 -x {3.0 9.2 -1 ------- null}
- -t 0.168 -s 3 -d 4 -p cbr -e 1000 -c 1 -i 6 -a 1 -x {0.0 9.0 2 ------- null}
h -t 0.168 -s 3 -d 4 -p cbr -e 1000 -c 1 -i 6 -a 1 -x {0.0 9.0 -1 ------- null}
r -t 0.17 -s 7 -d 8 -p cbr -e 1000 -c 3 -i 2 -a 3 -x {3.0 9.2 0 ------- null}
+ -t 0.17 -s 8 -d 9 -p cbr -e 1000 -c 3 -i 2 -a 3 -x {3.0 9.2 0 ------- null}
- -t 0.17 -s 8 -d 9 -p cbr -e 1000 -c 3 -i 2 -a 3 -x {3.0 9.2 0 ------- null}
h -t 0.17 -s 8 -d 9 -p cbr -e 1000 -c 3 -i 2 -a 3 -x {3.0 9.2 -1 ------- null}
r -t 0.17 -s 6 -d 7 -p cbr -e 1000 -c 2 -i 1 -a 2 -x {2.0 9.1 0 ------- null}
+ -t 0.17 -s 7 -d 8 -p cbr -e 1000 -c 2 -i 1 -a 2 -x {2.0 9.1 0 ------- null}
r -t 0.17 -s 3 -d 4 -p cbr -e 1000 -c 1 -i 3 -a 1 -x {0.0 9.0 1 ------- null}
+ -t 0.17 -s 4 -d 5 -p cbr -e 1000 -c 1 -i 3 -a 1 -x {0.0 9.0 1 ------- null}
+ -t 0.17 -s 0 -d 1 -p cbr -e 1000 -c 1 -i 21 -a 1 -x {0.0 9.0 7 ------- null}
- -t 0.17 -s 0 -d 1 -p cbr -e 1000 -c 1 -i 21 -a 1 -x {0.0 9.0 7 ------- null}
h -t 0.17 -s 0 -d 1 -p cbr -e 1000 -c 1 -i 21 -a 1 -x {0.0 9.0 -1 ------- null}
+ -t 0.17 -s 2 -d 3 -p cbr -e 1000 -c 2 -i 22 -a 2 -x {2.0 9.1 7 ------- null}
+ -t 0.17 -s 3 -d 4 -p cbr -e 1000 -c 3 -i 23 -a 3 -x {3.0 9.2 7 ------- null}
- -t 0.17 -s 7 -d 8 -p cbr -e 1000 -c 2 -i 1 -a 2 -x {2.0 9.1 0 ------- null}
h -t 0.17 -s 7 -d 8 -p cbr -e 1000 -c 2 -i 1 -a 2 -x {2.0 9.1 -1 ------- null}
- -t 0.17 -s 4 -d 5 -p cbr -e 1000 -c 1 -i 3 -a 1 -x {0.0 9.0 1 ------- null}
h -t 0.17 -s 4 -d 5 -p cbr -e 1000 -c 1 -i 3 -a 1 -x {0.0 9.0 -1 ------- null}
r -t 0.172 -s 2 -d 3 -p cbr -e 1000 -c 1 -i 9 -a 1 -x {0.0 9.0 3 ------- null}
+ -t 0.172 -s 3 -d 4 -p cbr -e 1000 -c 1 -i 9 -a 1 -x {0.0 9.0 3 ------- null}
r -t 0.172 -s 5 -d 6 -p cbr -e 1000 -c 3 -i 11 -a 3 -x {3.0 9.2 3 ------- null}
+ -t 0.172 -s 6 -d 7 -p cbr -e 1000 -c 3 -i 11 -a 3 -x {3.0 9.2 3 ------- null}
- -t 0.172 -s 6 -d 7 -p cbr -e 1000 -c 3 -i 11 -a 3 -x {3.0 9.2 3 ------- null}
h -t 0.172 -s 6 -d 7 -p cbr -e 1000 -c 3 -i 11 -a 3 -x {3.0 9.2 -1 ------- null}
r -t 0.172 -s 4 -d 5 -p cbr -e 1000 -c 1 -i 0 -a 1 -x {0.0 9.0 0 ------- null}
+ -t 0.172 -s 5 -d 6 -p cbr -e 1000 -c 1 -i 0 -a 1 -x {0.0 9.0 0 ------- null}
- -t 0.172 -s 2 -d 3 -p cbr -e 1000 -c 2 -i 22 -a 2 -x {2.0 9.1 7 ------- null}
h -t 0.172 -s 2 -d 3 -p cbr -e 1000 -c 2 -i 22 -a 2 -x {2.0 9.1 -1 ------- null}
- -t 0.172 -s 5 -d 6 -p cbr -e 1000 -c 1 -i 0 -a 1 -x {0.0 9.0 0 ------- null}
h -t 0.172 -s 5 -d 6 -p cbr -e 1000 -c 1 -i 0 -a 1 -x {0.0 9.0 -1 ------- null}
- -t 0.172 -s 3 -d 4 -p cbr -e 1000 -c 2 -i 16 -a 2 -x {2.0 9.1 5 ------- null}
h -t 0.172 -s 3 -d 4 -p cbr -e 1000 -c 2 -i 16 -a 2 -x {2.0 9.1 -1 ------- null}
r -t 0.174 -s 0 -d 1 -p cbr -e 1000 -c 1 -i 18 -a 1 -x {0.0 9.0 6 ------- null}
+ -t 0.174 -s 1 -d 2 -p cbr -e 1000 -c 1 -i 18 -a 1 -x {0.0 9.0 6 ------- null}
- -t 0.174 -s 1 -d 2 -p cbr -e 1000 -c 1 -i 18 -a 1 -x {0.0 9.0 6 ------- null}
h -t 0.174 -s 1 -d 2 -p cbr -e 1000 -c 1 -i 18 -a 1 -x {0.0 9.0 -1 ------- null}
r -t 0.174 -s 3 -d 4 -p cbr -e 1000 -c 2 -i 13 -a 2 -x {2.0 9.1 4 ------- null}
+ -t 0.174 -s 4 -d 5 -p cbr -e 1000 -c 2 -i 13 -a 2 -x {2.0 9.1 4 ------- null}
- -t 0.174 -s 4 -d 5 -p cbr -e 1000 -c 2 -i 13 -a 2 -x {2.0 9.1 4 ------- null}
h -t 0.174 -s 4 -d 5 -p cbr -e 1000 -c 2 -i 13 -a 2 -x {2.0 9.1 -1 ------- null}
r -t 0.176 -s 6 -d 7 -p cbr -e 1000 -c 3 -i 8 -a 3 -x {3.0 9.2 2 ------- null}
+ -t 0.176 -s 7 -d 8 -p cbr -e 1000 -c 3 -i 8 -a 3 -x {3.0 9.2 2 ------- null}
- -t 0.176 -s 7 -d 8 -p cbr -e 1000 -c 3 -i 8 -a 3 -x {3.0 9.2 2 ------- null}
h -t 0.176 -s 7 -d 8 -p cbr -e 1000 -c 3 -i 8 -a 3 -x {3.0 9.2 -1 ------- null}
r -t 0.176 -s 2 -d 3 -p cbr -e 1000 -c 2 -i 19 -a 2 -x {2.0 9.1 6 ------- null}
+ -t 0.176 -s 3 -d 4 -p cbr -e 1000 -c 2 -i 19 -a 2 -x {2.0 9.1 6 ------- null}
r -t 0.176 -s 5 -d 6 -p cbr -e 1000 -c 2 -i 7 -a 2 -x {2.0 9.1 2 ------- null}
+ -t 0.176 -s 6 -d 7 -p cbr -e 1000 -c 2 -i 7 -a 2 -x {2.0 9.1 2 ------- null}
r -t 0.176 -s 4 -d 5 -p cbr -e 1000 -c 2 -i 10 -a 2 -x {2.0 9.1 3 ------- null}
+ -t 0.176 -s 5 -d 6 -p cbr -e 1000 -c 2 -i 10 -a 2 -x {2.0 9.1 3 ------- null}
- -t 0.176 -s 6 -d 7 -p cbr -e 1000 -c 2 -i 7 -a 2 -x {2.0 9.1 2 ------- null}
h -t 0.176 -s 6 -d 7 -p cbr -e 1000 -c 2 -i 7 -a 2 -x {2.0 9.1 -1 ------- null}
- -t 0.176 -s 5 -d 6 -p cbr -e 1000 -c 2 -i 10 -a 2 -x {2.0 9.1 3 ------- null}
h -t 0.176 -s 5 -d 6 -p cbr -e 1000 -c 2 -i 10 -a 2 -x {2.0 9.1 -1 ------- null}
- -t 0.176 -s 3 -d 4 -p cbr -e 1000 -c 3 -i 23 -a 3 -x {3.0 9.2 7 ------- null}
h -t 0.176 -s 3 -d 4 -p cbr -e 1000 -c 3 -i 23 -a 3 -x {3.0 9.2 -1 ------- null}
r -t 0.178 -s 1 -d 2 -p cbr -e 1000 -c 1 -i 15 -a 1 -x {0.0 9.0 5 ------- null}
+ -t 0.178 -s 2 -d 3 -p cbr -e 1000 -c 1 -i 15 -a 1 -x {0.0 9.0 5 ------- null}
- -t 0.178 -s 2 -d 3 -p cbr -e 1000 -c 1 -i 15 -a 1 -x {0.0 9.0 5 ------- null}
h -t 0.178 -s 2 -d 3 -p cbr -e 1000 -c 1 -i 15 -a 1 -x {0.0 9.0 -1 ------- null}
r -t 0.178 -s 3 -d 4 -p cbr -e 1000 -c 3 -i 20 -a 3 -x {3.0 9.2 6 ------- null}
+ -t 0.178 -s 4 -d 5 -p cbr -e 1000 -c 3 -i 20 -a 3 -x {3.0 9.2 6 ------- null}
- -t 0.178 -s 4 -d 5 -p cbr -e 1000 -c 3 -i 20 -a 3 -x {3.0 9.2 6 ------- null}
h -t 0.178 -s 4 -d 5 -p cbr -e 1000 -c 3 -i 20 -a 3 -x {3.0 9.2 -1 ------- null}
r -t 0.18 -s 7 -d 8 -p cbr -e 1000 -c 3 -i 5 -a 3 -x {3.0 9.2 1 ------- null}
+ -t 0.18 -s 8 -d 9 -p cbr -e 1000 -c 3 -i 5 -a 3 -x {3.0 9.2 1 ------- null}
- -t 0.18 -s 8 -d 9 -p cbr -e 1000 -c 3 -i 5 -a 3 -x {3.0 9.2 1 ------- null}
h -t 0.18 -s 8 -d 9 -p cbr -e 1000 -c 3 -i 5 -a 3 -x {3.0 9.2 -1 ------- null}
r -t 0.18 -s 6 -d 7 -p cbr -e 1000 -c 2 -i 4 -a 2 -x {2.0 9.1 1 ------- null}
+ -t 0.18 -s 7 -d 8 -p cbr -e 1000 -c 2 -i 4 -a 2 -x {2.0 9.1 1 ------- null}
r -t 0.18 -s 4 -d 5 -p cbr -e 1000 -c 3 -i 17 -a 3 -x {3.0 9.2 5 ------- null}
+ -t 0.18 -s 5 -d 6 -p cbr -e 1000 -c 3 -i 17 -a 3 -x {3.0 9.2 5 ------- null}
+ -t 0.18 -s 0 -d 1 -p cbr -e 1000 -c 1 -i 24 -a 1 -x {0.0 9.0 8 ------- null}
- -t 0.18 -s 0 -d 1 -p cbr -e 1000 -c 1 -i 24 -a 1 -x {0.0 9.0 8 ------- null}
h -t 0.18 -s 0 -d 1 -p cbr -e 1000 -c 1 -i 24 -a 1 -x {0.0 9.0 -1 ------- null}
+ -t 0.18 -s 2 -d 3 -p cbr -e 1000 -c 2 -i 25 -a 2 -x {2.0 9.1 8 ------- null}
+ -t 0.18 -s 3 -d 4 -p cbr -e 1000 -c 3 -i 26 -a 3 -x {3.0 9.2 8 ------- null}
- -t 0.18 -s 7 -d 8 -p cbr -e 1000 -c 2 -i 4 -a 2 -x {2.0 9.1 1 ------- null}
h -t 0.18 -s 7 -d 8 -p cbr -e 1000 -c 2 -i 4 -a 2 -x {2.0 9.1 -1 ------- null}
- -t 0.18 -s 5 -d 6 -p cbr -e 1000 -c 3 -i 17 -a 3 -x {3.0 9.2 5 ------- null}
h -t 0.18 -s 5 -d 6 -p cbr -e 1000 -c 3 -i 17 -a 3 -x {3.0 9.2 -1 ------- null}
- -t 0.18 -s 3 -d 4 -p cbr -e 1000 -c 1 -i 9 -a 1 -x {0.0 9.0 3 ------- null}
h -t 0.18 -s 3 -d 4 -p cbr -e 1000 -c 1 -i 9 -a 1 -x {0.0 9.0 -1 ------- null}
r -t 0.182 -s 2 -d 3 -p cbr -e 1000 -c 1 -i 12 -a 1 -x {0.0 9.0 4 ------- null}
+ -t 0.182 -s 3 -d 4 -p cbr -e 1000 -c 1 -i 12 -a 1 -x {0.0 9.0 4 ------- null}
r -t 0.182 -s 5 -d 6 -p cbr -e 1000 -c 3 -i 14 -a 3 -x {3.0 9.2 4 ------- null}
+ -t 0.182 -s 6 -d 7 -p cbr -e 1000 -c 3 -i 14 -a 3 -x {3.0 9.2 4 ------- null}
- -t 0.182 -s 6 -d 7 -p cbr -e 1000 -c 3 -i 14 -a 3 -x {3.0 9.2 4 ------- null}
h -t 0.182 -s 6 -d 7 -p cbr -e 1000 -c 3 -i 14 -a 3 -x {3.0 9.2 -1 ------- null}
r -t 0.182 -s 3 -d 4 -p cbr -e 1000 -c 1 -i 6 -a 1 -x {0.0 9.0 2 ------- null}
+ -t 0.182 -s 4 -d 5 -p cbr -e 1000 -c 1 -i 6 -a 1 -x {0.0 9.0 2 ------- null}
- -t 0.182 -s 2 -d 3 -p cbr -e 1000 -c 2 -i 25 -a 2 -x {2.0 9.1 8 ------- null}
h -t 0.182 -s 2 -d 3 -p cbr -e 1000 -c 2 -i 25 -a 2 -x {2.0 9.1 -1 ------- null}
- -t 0.182 -s 4 -d 5 -p cbr -e 1000 -c 1 -i 6 -a 1 -x {0.0 9.0 2 ------- null}
h -t 0.182 -s 4 -d 5 -p cbr -e 1000 -c 1 -i 6 -a 1 -x {0.0 9.0 -1 ------- null}
r -t 0.184 -s 0 -d 1 -p cbr -e 1000 -c 1 -i 21 -a 1 -x {0.0 9.0 7 ------- null}
+ -t 0.184 -s 1 -d 2 -p cbr -e 1000 -c 1 -i 21 -a 1 -x {0.0 9.0 7 ------- null}
- -t 0.184 -s 1 -d 2 -p cbr -e 1000 -c 1 -i 21 -a 1 -x {0.0 9.0 7 ------- null}
h -t 0.184 -s 1 -d 2 -p cbr -e 1000 -c 1 -i 21 -a 1 -x {0.0 9.0 -1 ------- null}
r -t 0.184 -s 7 -d 8 -p cbr -e 1000 -c 2 -i 1 -a 2 -x {2.0 9.1 0 ------- null}
+ -t 0.184 -s 8 -d 9 -p cbr -e 1000 -c 2 -i 1 -a 2 -x {2.0 9.1 0 ------- null}
r -t 0.184 -s 4 -d 5 -p cbr -e 1000 -c 1 -i 3 -a 1 -x {0.0 9.0 1 ------- null}
+ -t 0.184 -s 5 -d 6 -p cbr -e 1000 -c 1 -i 3 -a 1 -x {0.0 9.0 1 ------- null}
- -t 0.184 -s 5 -d 6 -p cbr -e 1000 -c 1 -i 3 -a 1 -x {0.0 9.0 1 ------- null}
h -t 0.184 -s 5 -d 6 -p cbr -e 1000 -c 1 -i 3 -a 1 -x {0.0 9.0 -1 ------- null}
- -t 0.184 -s 3 -d 4 -p cbr -e 1000 -c 2 -i 19 -a 2 -x {2.0 9.1 6 ------- null}
h -t 0.184 -s 3 -d 4 -p cbr -e 1000 -c 2 -i 19 -a 2 -x {2.0 9.1 -1 ------- null}
r -t 0.186 -s 6 -d 7 -p cbr -e 1000 -c 3 -i 11 -a 3 -x {3.0 9.2 3 ------- null}
+ -t 0.186 -s 7 -d 8 -p cbr -e 1000 -c 3 -i 11 -a 3 -x {3.0 9.2 3 ------- null}
- -t 0.186 -s 7 -d 8 -p cbr -e 1000 -c 3 -i 11 -a 3 -x {3.0 9.2 3 ------- null}
h -t 0.186 -s 7 -d 8 -p cbr -e 1000 -c 3 -i 11 -a 3 -x {3.0 9.2 -1 ------- null}
r -t 0.186 -s 2 -d 3 -p cbr -e 1000 -c 2 -i 22 -a 2 -x {2.0 9.1 7 ------- null}
+ -t 0.186 -s 3 -d 4 -p cbr -e 1000 -c 2 -i 22 -a 2 -x {2.0 9.1 7 ------- null}
r -t 0.186 -s 5 -d 6 -p cbr -e 1000 -c 1 -i 0 -a 1 -x {0.0 9.0 0 ------- null}
+ -t 0.186 -s 6 -d 7 -p cbr -e 1000 -c 1 -i 0 -a 1 -x {0.0 9.0 0 ------- null}
r -t 0.186 -s 3 -d 4 -p cbr -e 1000 -c 2 -i 16 -a 2 -x {2.0 9.1 5 ------- null}
+ -t 0.186 -s 4 -d 5 -p cbr -e 1000 -c 2 -i 16 -a 2 -x {2.0 9.1 5 ------- null}
- -t 0.186 -s 6 -d 7 -p cbr -e 1000 -c 1 -i 0 -a 1 -x {0.0 9.0 0 ------- null}