+ 0.1 0 1 cbr 1000 ------- 1 0.0 9.0 0 0
- 0.1 0 1 cbr 1000 ------- 1 0.0 9.0 0 0
+ 0.1 2 3 cbr 1000 ------- 2 2.0 9.1 0 1
- 0.1 2 3 cbr 1000 ------- 2 2.0 9.1 0 1
+ 0.1 3 4 cbr 1000 ------- 3 3.0 9.2 0 2
- 0.1 3 4 cbr 1000 ------- 3 3.0 9.2 0 2
+ 0.11 0 1 cbr 1000 ------- 1 0.0 9.0 1 3
- 0.11 0 1 cbr 1000 ------- 1 0.0 9.0 1 3
+ 0.11 2 3 cbr 1000 ------- 2 2.0 9.1 1 4
- 0.11 2 3 cbr 1000 ------- 2 2.0 9.1 1 4
+ 0.11 3 4 cbr 1000 ------- 3 3.0 9.2 1 5
- 0.11 3 4 cbr 1000 ------- 3 3.0 9.2 1 5
r 0.114 0 1 cbr 1000 ------- 1 0.0 9.0 0 0
+ 0.114 1 2 cbr 1000 ------- 1 0.0 9.0 0 0
- 0.114 1 2 cbr 1000 ------- 1 0.0 9.0 0 0
r 0.114 2 3 cbr 1000 ------- 2 2.0 9.1 0 1
+ 0.114 3 4 cbr 1000 ------- 2 2.0 9.1 0 1
r 0.114 3 4 cbr 1000 ------- 3 3.0 9.2 0 2
+ 0.114 4 5 cbr 1000 ------- 3 3.0 9.2 0 2
- 0.114 4 5 cbr 1000 ------- 3 3.0 9.2 0 2
- 0.114 3 4 cbr 1000 ------- 2 2.0 9.1 0 1
+ 0.12 0 1 cbr 1000 ------- 1 0.0 9.0 2 6
- 0.12 0 1 cbr 1000 ------- 1 0.0 9.0 2 6
+ 0.12 2 3 cbr 1000 ------- 2 2.0 9.1 2 7
- 0.12 2 3 cbr 1000 ------- 2 2.0 9.1 2 7
+ 0.12 3 4 cbr 1000 ------- 3 3.0 9.2 2 8
- 0.12 3 4 cbr 1000 ------- 3 3.0 9.2 2 8
r 0.124 0 1 cbr 1000 ------- 1 0.0 9.0 1 3
+ 0.124 1 2 cbr 1000 ------- 1 0.0 9.0 1 3
- 0.124 1 2 cbr 1000 ------- 1 0.0 9.0 1 3
r 0.124 2 3 cbr 1000 ------- 2 2.0 9.1 1 4
+ 0.124 3 4 cbr 1000 ------- 2 2.0 9.1 1 4
r 0.124 3 4 cbr 1000 ------- 3 3.0 9.2 1 5
+ 0.124 4 5 cbr 1000 ------- 3 3.0 9.2 1 5
- 0.124 4 5 cbr 1000 ------- 3 3.0 9.2 1 5
- 0.124 3 4 cbr 1000 ------- 2 2.0 9.1 1 4
r 0.128 1 2 cbr 1000 ------- 1 0.0 9.0 0 0
+ 0.128 2 3 cbr 1000 ------- 1 0.0 9.0 0 0
- 0.128 2 3 cbr 1000 ------- 1 0.0 9.0 0 0
r 0.128 4 5 cbr 1000 ------- 3 3.0 9.2 0 2
+ 0.128 5 6 cbr 1000 ------- 3 3.0 9.2 0 2
- 0.128 5 6 cbr 1000 ------- 3 3.0 9.2 0 2
r 0.128 3 4 cbr 1000 ------- 2 2.0 9.1 0 1
+ 0.128 4 5 cbr 1000 ------- 2 2.0 9.1 0 1
- 0.128 4 5 cbr 1000 ------- 2 2.0 9.1 0 1
+ 0.13 0 1 cbr 1000 ------- 1 0.0 9.0 3 9
- 0.13 0 1 cbr 1000 ------- 1 0.0 9.0 3 9
+ 0.13 2 3 cbr 1000 ------- 2 2.0 9.1 3 10
+ 0.13 3 4 cbr 1000 ------- 3 3.0 9.2 3 11
- 0.13 3 4 cbr 1000 ------- 3 3.0 9.2 3 11
- 0.132 2 3 cbr 1000 ------- 2 2.0 9.1 3 10
r 0.134 0 1 cbr 1000 ------- 1 0.0 9.0 2 6
+ 0.134 1 2 cbr 1000 ------- 1 0.0 9.0 2 6
- 0.134 1 2 cbr 1000 ------- 1 0.0 9.0 2 6
r 0.134 2 3 cbr 1000 ------- 2 2.0 9.1 2 7
+ 0.134 3 4 cbr 1000 ------- 2 2.0 9.1 2 7
r 0.134 3 4 cbr 1000 ------- 3 3.0 9.2 2 8
+ 0.134 4 5 cbr 1000 ------- 3 3.0 9.2 2 8
- 0.134 4 5 cbr 1000 ------- 3 3.0 9.2 2 8
- 0.134 3 4 cbr 1000 ------- 2 2.0 9.1 2 7
r 0.138 1 2 cbr 1000 ------- 1 0.0 9.0 1 3
+ 0.138 2 3 cbr 1000 ------- 1 0.0 9.0 1 3
- 0.138 2 3 cbr 1000 ------- 1 0.0 9.0 1 3
r 0.138 4 5 cbr 1000 ------- 3 3.0 9.2 1 5
+ 0.138 5 6 cbr 1000 ------- 3 3.0 9.2 1 5
- 0.138 5 6 cbr 1000 ------- 3 3.0 9.2 1 5
r 0.138 3 4 cbr 1000 ------- 2 2.0 9.1 1 4
+ 0.138 4 5 cbr 1000 ------- 2 2.0 9.1 1 4
- 0.138 4 5 cbr 1000 ------- 2 2.0 9.1 1 4
+ 0.14 0 1 cbr 1000 ------- 1 0.0 9.0 4 12
- 0.14 0 1 cbr 1000 ------- 1 0.0 9.0 4 12
+ 0.14 2 3 cbr 1000 ------- 2 2.0 9.1 4 13
+ 0.14 3 4 cbr 1000 ------- 3 3.0 9.2 4 14
- 0.14 3 4 cbr 1000 ------- 3 3.0 9.2 4 14
r 0.142 2 3 cbr 1000 ------- 1 0.0 9.0 0 0
+ 0.142 3 4 cbr 1000 ------- 1 0.0 9.0 0 0
r 0.142 5 6 cbr 1000 ------- 3 3.0 9.2 0 2
+ 0.142 6 7 cbr 1000 ------- 3 3.0 9.2 0 2
- 0.142 6 7 cbr 1000 ------- 3 3.0 9.2 0 2
r 0.142 4 5 cbr 1000 ------- 2 2.0 9.1 0 1
+ 0.142 5 6 cbr 1000 ------- 2 2.0 9.1 0 1
- 0.142 2 3 cbr 1000 ------- 2 2.0 9.1 4 13
- 0.142 5 6 cbr 1000 ------- 2 2.0 9.1 0 1
r 0.144 0 1 cbr 1000 ------- 1 0.0 9.0 3 9
+ 0.144 1 2 cbr 1000 ------- 1 0.0 9.0 3 9
- 0.144 1 2 cbr 1000 ------- 1 0.0 9.0 3 9
r 0.144 3 4 cbr 1000 ------- 3 3.0 9.2 3 11
+ 0.144 4 5 cbr 1000 ------- 3 3.0 9.2 3 11
- 0.144 4 5 cbr 1000 ------- 3 3.0 9.2 3 11
- 0.144 3 4 cbr 1000 ------- 1 0.0 9.0 0 0
r 0.146 2 3 cbr 1000 ------- 2 2.0 9.1 3 10
+ 0.146 3 4 cbr 1000 ------- 2 2.0 9.1 3 10
r 0.148 1 2 cbr 1000 ------- 1 0.0 9.0 2 6
+ 0.148 2 3 cbr 1000 ------- 1 0.0 9.0 2 6
- 0.148 2 3 cbr 1000 ------- 1 0.0 9.0 2 6
r 0.148 4 5 cbr 1000 ------- 3 3.0 9.2 2 8
+ 0.148 5 6 cbr 1000 ------- 3 3.0 9.2 2 8
- 0.148 5 6 cbr 1000 ------- 3 3.0 9.2 2 8
r 0.148 3 4 cbr 1000 ------- 2 2.0 9.1 2 7
+ 0.148 4 5 cbr 1000 ------- 2 2.0 9.1 2 7
- 0.148 4 5 cbr 1000 ------- 2 2.0 9.1 2 7
- 0.148 3 4 cbr 1000 ------- 2 2.0 9.1 3 10
+ 0.15 0 1 cbr 1000 ------- 1 0.0 9.0 5 15
- 0.15 0 1 cbr 1000 ------- 1 0.0 9.0 5 15
+ 0.15 2 3 cbr 1000 ------- 2 2.0 9.1 5 16
+ 0.15 3 4 cbr 1000 ------- 3 3.0 9.2 5 17
r 0.152 2 3 cbr 1000 ------- 1 0.0 9.0 1 3
+ 0.152 3 4 cbr 1000 ------- 1 0.0 9.0 1 3
r 0.152 5 6 cbr 1000 ------- 3 3.0 9.2 1 5
+ 0.152 6 7 cbr 1000 ------- 3 3.0 9.2 1 5
- 0.152 6 7 cbr 1000 ------- 3 3.0 9.2 1 5
r 0.152 4 5 cbr 1000 ------- 2 2.0 9.1 1 4
+ 0.152 5 6 cbr 1000 ------- 2 2.0 9.1 1 4
- 0.152 2 3 cbr 1000 ------- 2 2.0 9.1 5 16
- 0.152 5 6 cbr 1000 ------- 2 2.0 9.1 1 4
- 0.152 3 4 cbr 1000 ------- 3 3.0 9.2 5 17
r 0.154 0 1 cbr 1000 ------- 1 0.0 9.0 4 12
+ 0.154 1 2 cbr 1000 ------- 1 0.0 9.0 4 12
- 0.154 1 2 cbr 1000 ------- 1 0.0 9.0 4 12
r 0.154 3 4 cbr 1000 ------- 3 3.0 9.2 4 14
+ 0.154 4 5 cbr 1000 ------- 3 3.0 9.2 4 14
- 0.154 4 5 cbr 1000 ------- 3 3.0 9.2 4 14
r 0.156 6 7 cbr 1000 ------- 3 3.0 9.2 0 2
+ 0.156 7 8 cbr 1000 ------- 3 3.0 9.2 0 2
- 0.156 7 8 cbr 1000 ------- 3 3.0 9.2 0 2
r 0.156 2 3 cbr 1000 ------- 2 2.0 9.1 4 13
+ 0.156 3 4 cbr 1000 ------- 2 2.0 9.1 4 13
r 0.156 5 6 cbr 1000 ------- 2 2.0 9.1 0 1
+ 0.156 6 7 cbr 1000 ------- 2 2.0 9.1 0 1
- 0.156 6 7 cbr 1000 ------- 2 2.0 9.1 0 1
- 0.156 3 4 cbr 1000 ------- 1 0.0 9.0 1 3
r 0.158 1 2 cbr 1000 ------- 1 0.0 9.0 3 9
+ 0.158 2 3 cbr 1000 ------- 1 0.0 9.0 3 9
- 0.158 2 3 cbr 1000 ------- 1 0.0 9.0 3 9
r 0.158 4 5 cbr 1000 ------- 3 3.0 9.2 3 11
+ 0.158 5 6 cbr 1000 ------- 3 3.0 9.2 3 11
- 0.158 5 6 cbr 1000 ------- 3 3.0 9.2 3 11
r 0.158 3 4 cbr 1000 ------- 1 0.0 9.0 0 0
+ 0.158 4 5 cbr 1000 ------- 1 0.0 9.0 0 0
- 0.158 4 5 cbr 1000 ------- 1 0.0 9.0 0 0
+ 0.16 0 1 cbr 1000 ------- 1 0.0 9.0 6 18
- 0.16 0 1 cbr 1000 ------- 1 0.0 9.0 6 18
+ 0.16 2 3 cbr 1000 ------- 2 2.0 9.1 6 19
+ 0.16 3 4 cbr 1000 ------- 3 3.0 9.2 6 20
- 0.16 3 4 cbr 1000 ------- 2 2.0 9.1 4 13
r 0.162 2 3 cbr 1000 ------- 1 0.0 9.0 2 6
+ 0.162 3 4 cbr 1000 ------- 1 0.0 9.0 2 6
r 0.162 5 6 cbr 1000 ------- 3 3.0 9.2 2 8
+ 0.162 6 7 cbr 1000 ------- 3 3.0 9.2 2 8
- 0.162 6 7 cbr 1000 ------- 3 3.0 9.2 2 8
r 0.162 4 5 cbr 1000 ------- 2 2.0 9.1 2 7
+ 0.162 5 6 cbr 1000 ------- 2 2.0 9.1 2 7
r 0.162 3 4 cbr 1000 ------- 2 2.0 9.1 3 10
+ 0.162 4 5 cbr 1000 ------- 2 2.0 9.1 3 10
- 0.162 2 3 cbr 1000 ------- 2 2.0 9.1 6 19
- 0.162 5 6 cbr 1000 ------- 2 2.0 9.1 2 7
- 0.162 4 5 cbr 1000 ------- 2 2.0 9.1 3 10
r 0.164 0 1 cbr 1000 ------- 1 0.0 9.0 5 15
+ 0.164 1 2 cbr 1000 ------- 1 0.0 9.0 5 15
- 0.164 1 2 cbr 1000 ------- 1 0.0 9.0 5 15
- 0.164 3 4 cbr 1000 ------- 3 3.0 9.2 6 20
r 0.166 6 7 cbr 1000 ------- 3 3.0 9.2 1 5
+ 0.166 7 8 cbr 1000 ------- 3 3.0 9.2 1 5
- 0.166 7 8 cbr 1000 ------- 3 3.0 9.2 1 5
r 0.166 2 3 cbr 1000 ------- 2 2.0 9.1 5 16
+ 0.166 3 4 cbr 1000 ------- 2 2.0 9.1 5 16
r 0.166 5 6 cbr 1000 ------- 2 2.0 9.1 1 4
+ 0.166 6 7 cbr 1000 ------- 2 2.0 9.1 1 4
r 0.166 3 4 cbr 1000 ------- 3 3.0 9.2 5 17
+ 0.166 4 5 cbr 1000 ------- 3 3.0 9.2 5 17
- 0.166 6 7 cbr 1000 ------- 2 2.0 9.1 1 4
- 0.166 4 5 cbr 1000 ------- 3 3.0 9.2 5 17
r 0.168 1 2 cbr 1000 ------- 1 0.0 9.0 4 12
+ 0.168 2 3 cbr 1000 ------- 1 0.0 9.0 4 12
- 0.168 2 3 cbr 1000 ------- 1 0.0 9.0 4 12
r 0.168 4 5 cbr 1000 ------- 3 3.0 9.2 4 14
+ 0.168 5 6 cbr 1000 ------- 3 3.0 9.2 4 14
- 0.168 5 6 cbr 1000 ------- 3 3.0 9.2 4 14
- 0.168 3 4 cbr 1000 ------- 1 0.0 9.0 2 6
r 0.17 7 8 cbr 1000 ------- 3 3.0 9.2 0 2
+ 0.17 8 9 cbr 1000 ------- 3 3.0 9.2 0 2
- 0.17 8 9 cbr 1000 ------- 3 3.0 9.2 0 2
r 0.17 6 7 cbr 1000 ------- 2 2.0 9.1 0 1
+ 0.17 7 8 cbr 1000 ------- 2 2.0 9.1 0 1
r 0.17 3 4 cbr 1000 ------- 1 0.0 9.0 1 3
+ 0.17 4 5 cbr 1000 ------- 1 0.0 9.0 1 3
+ 0.17 0 1 cbr 1000 ------- 1 0.0 9.0 7 21
- 0.17 0 1 cbr 1000 ------- 1 0.0 9.0 7 21
+ 0.17 2 3 cbr 1000 ------- 2 2.0 9.1 7 22
+ 0.17 3 4 cbr 1000 ------- 3 3.0 9.2 7 23
- 0.17 7 8 cbr 1000 ------- 2 2.0 9.1 0 1
- 0.17 4 5 cbr 1000 ------- 1 0.0 9.0 1 3
r 0.172 2 3 cbr 1000 ------- 1 0.0 9.0 3 9
+ 0.172 3 4 cbr 1000 ------- 1 0.0 9.0 3 9
r 0.172 5 6 cbr 1000 ------- 3 3.0 9.2 3 11
+ 0.172 6 7 cbr 1000 ------- 3 3.0 9.2 3 11
- 0.172 6 7 cbr 1000 ------- 3 3.0 9.2 3 11
r 0.172 4 5 cbr 1000 ------- 1 0.0 9.0 0 0
+ 0.172 5 6 cbr 1000 ------- 1 0.0 9.0 0 0
- 0.172 2 3 cbr 1000 ------- 2 2.0 9.1 7 22
- 0.172 5 6 cbr 1000 ------- 1 0.0 9.0 0 0
- 0.172 3 4 cbr 1000 ------- 2 2.0 9.1 5 16
r 0.174 0 1 cbr 1000 ------- 1 0.0 9.0 6 18
+ 0.174 1 2 cbr 1000 ------- 1 0.0 9.0 6 18
- 0.174 1 2 cbr 1000 ------- 1 0.0 9.0 6 18
r 0.174 3 4 cbr 1000 ------- 2 2.0 9.1 4 13
+ 0.174 4 5 cbr 1000 ------- 2 2.0 9.1 4 13
- 0.174 4 5 cbr 1000 ------- 2 2.0 9.1 4 13
r 0.176 6 7 cbr 1000 ------- 3 3.0 9.2 2 8
+ 0.176 7 8 cbr 1000 ------- 3 3.0 9.2 2 8
- 0.176 7 8 cbr 1000 ------- 3 3.0 9.2 2 8
r 0.176 2 3 cbr 1000 ------- 2 2.0 9.1 6 19
+ 0.176 3 4 cbr 1000 ------- 2 2.0 9.1 6 19
r 0.176 5 6 cbr 1000 ------- 2 2.0 9.1 2 7
+ 0.176 6 7 cbr 1000 ------- 2 2.0 9.1 2 7
r 0.176 4 5 cbr 1000 ------- 2 2.0 9.1 3 10
+ 0.176 5 6 cbr 1000 ------- 2 2.0 9.1 3 10
- 0.176 6 7 cbr 1000 ------- 2 2.0 9.1 2 7
- 0.176 5 6 cbr 1000 ------- 2 2.0 9.1 3 10
- 0.176 3 4 cbr 1000 ------- 3 3.0 9.2 7 23
r 0.178 1 2 cbr 1000 ------- 1 0.0 9.0 5 15
+ 0.178 2 3 cbr 1000 ------- 1 0.0 9.0 5 15
- 0.178 2 3 cbr 1000 ------- 1 0.0 9.0 5 15
r 0.178 3 4 cbr 1000 ------- 3 3.0 9.2 6 20
+ 0.178 4 5 cbr 1000 ------- 3 3.0 9.2 6 20
- 0.178 4 5 cbr 1000 ------- 3 3.0 9.2 6 20
r 0.18 7 8 cbr 1000 ------- 3 3.0 9.2 1 5
+ 0.18 8 9 cbr 1000 ------- 3 3.0 9.2 1 5
- 0.18 8 9 cbr 1000 ------- 3 3.0 9.2 1 5
r 0.18 6 7 cbr 1000 ------- 2 2.0 9.1 1 4
+ 0.18 7 8 cbr 1000 ------- 2 2.0 9.1 1 4
r 0.18 4 5 cbr 1000 ------- 3 3.0 9.2 5 17
+ 0.18 5 6 cbr 1000 ------- 3 3.0 9.2 5 17
+ 0.18 0 1 cbr 1000 ------- 1 0.0 9.0 8 24
- 0.18 0 1 cbr 1000 ------- 1 0.0 9.0 8 24
+ 0.18 2 3 cbr 1000 ------- 2 2.0 9.1 8 25
+ 0.18 3 4 cbr 1000 ------- 3 3.0 9.2 8 26
- 0.18 7 8 cbr 1000 ------- 2 2.0 9.1 1 4
- 0.18 5 6 cbr 1000 ------- 3 3.0 9.2 5 17
- 0.18 3 4 cbr 1000 ------- 1 0.0 9.0 3 9
r 0.182 2 3 cbr 1000 ------- 1 0.0 9.0 4 12
+ 0.182 3 4 cbr 1000 ------- 1 0.0 9.0 4 12
r 0.182 5 6 cbr 1000 ------- 3 3.0 9.2 4 14
+ 0.182 6 7 cbr 1000 ------- 3 3.0 9.2 4 14
- 0.182 6 7 cbr 1000 ------- 3 3.0 9.2 4 14
r 0.182 3 4 cbr 1000 ------- 1 0.0 9.0 2 6
+ 0.182 4 5 cbr 1000 ------- 1 0.0 9.0 2 6
- 0.182 2 3 cbr 1000 ------- 2 2.0 9.1 8 25
- 0.182 4 5 cbr 1000 ------- 1 0.0 9.0 2 6
r 0.184 0 1 cbr 1000 ------- 1 0.0 9.0 7 21
+ 0.184 1 2 cbr 1000 ------- 1 0.0 9.0 7 21
- 0.184 1 2 cbr 1000 ------- 1 0.0 9.0 7 21
r 0.184 7 8 cbr 1000 ------- 2 2.0 9.1 0 1
+ 0.184 8 9 cbr 1000 ------- 2 2.0 9.1 0 1
r 0.184 4 5 cbr 1000 ------- 1 0.0 9.0 1 3
+ 0.184 5 6 cbr 1000 ------- 1 0.0 9.0 1 3
- 0.184 5 6 cbr 1000 ------- 1 0.0 9.0 1 3
- 0.184 3 4 cbr 1000 ------- 2 2.0 9.1 6 19
r 0.186 6 7 cbr 1000 ------- 3 3.0 9.2 3 11
+ 0.186 7 8 cbr 1000 ------- 3 3.0 9.2 3 11
- 0.186 7 8 cbr 1000 ------- 3 3.0 9.2 3 11
r 0.186 2 3 cbr 1000 ------- 2 2.0 9.1 7 22
+ 0.186 3 4 cbr 1000 ------- 2 2.0 9.1 7 22
r 0.186 5 6 cbr 1000 ------- 1 0.0 9.0 0 0
+ 0.186 6 7 cbr 1000 ------- 1 0.0 9.0 0 0
r 0.186 3 4 cbr 1000 ------- 2 2.0 9.1 5 16
+ 0.186 4 5 cbr 1000 ------- 2 2.0 9.1 5 16
- 0.186 6 7 cbr 1000 ------- 1 0.0 9.0 0 0
- 0.186 4 5 cbr 1000 ------- 2 2.0 9.1 5 16
r 0.188 1 2 cbr 1000 ------- 1 0.0 9.0 6 18
+ 0.188 2 3 cbr 1000 ------- 1 0.0 9.0 6 18
- 0.188 2 3 cbr 1000 ------- 1 0.0 9.0 6 18
r 0.188 4 5 cbr 1000 ------- 2 2.0 9.1 4 13
+ 0.188 5 6 cbr 1000 ------- 2 2.0 9.1 4 13
- 0.188 8 9 cbr 1000 ------- 2 2.0 9.1 0 1
- 0.188 5 6 cbr 1000 ------- 2 2.0 9.1 4 13
- 0.188 3 4 cbr 1000 ------- 3 3.0 9.2 8 26
r 0.19 7 8 cbr 1000 ------- 3 3.0 9.2 2 8
+ 0.19 8 9 cbr 1000 ------- 3 3.0 9.2 2 8
r 0.19 6 7 cbr 1000 ------- 2 2.0 9.1 2 7
+ 0.19 7 8 cbr 1000 ------- 2 2.0 9.1 2 7
r 0.19 5 6 cbr 1000 ------- 2 2.0 9.1 3 10
+ 0.19 6 7 cbr 1000 ------- 2 2.0 9.1 3 10
r 0.19 3 4 cbr 1000 ------- 3 3.0 9.2 7 23
+ 0.19 4 5 cbr 1000 ------- 3 3.0 9.2 7 23
+ 0.19 0 1 cbr 1000 ------- 1 0.0 9.0 9 27
- 0.19 0 1 cbr 1000 ------- 1 0.0 9.0 9 27
+ 0.19 2 3 cbr 1000 ------- 2 2.0 9.1 9 28
+ 0.19 3 4 cbr 1000 ------- 3 3.0 9.2 9 29
- 0.19 7 8 cbr 1000 ------- 2 2.0 9.1 2 7
- 0.19 6 7 cbr 1000 ------- 2 2.0 9.1 3 10
- 0.19 4 5 cbr 1000 ------- 3 3.0 9.2 7 23
r 0.192 2 3 cbr 1000 ------- 1 0.0 9.0 5 15
+ 0.192 3 4 cbr 1000 ------- 1 0.0 9.0 5 15
r 0.192 4 5 cbr 1000 ------- 3 3.0 9.2 6 20
+ 0.192 5 6 cbr 1000 ------- 3 3.0 9.2 6 20
- 0.192 2 3 cbr 1000 ------- 2 2.0 9.1 9 28
- 0.192 5 6 cbr 1000 ------- 3 3.0 9.2 6 20
- 0.192 3 4 cbr 1000 ------- 1 0.0 9.0 4 12
r 0.194 0 1 cbr 1000 ------- 1 0.0 9.0 8 24
+ 0.194 1 2 cbr 1000 ------- 1 0.0 9.0 8 24
- 0.194 1 2 cbr 1000 ------- 1 0.0 9.0 8 24
r 0.194 7 8 cbr 1000 ------- 2 2.0 9.1 1 4
+ 0.194 8 9 cbr 1000 ------- 2 2.0 9.1 1 4
r 0.194 5 6 cbr 1000 ------- 3 3.0 9.2 5 17
+ 0.194 6 7 cbr 1000 ------- 3 3.0 9.2 5 17
r 0.194 3 4 cbr 1000 ------- 1 0.0 9.0 3 9
+ 0.194 4 5 cbr 1000 ------- 1 0.0 9.0 3 9
- 0.194 6 7 cbr 1000 ------- 3 3.0 9.2 5 17
- 0.194 4 5 cbr 1000 ------- 1 0.0 9.0 3 9
r 0.196 6 7 cbr 1000 ------- 3 3.0 9.2 4 14
+ 0.196 7 8 cbr 1000 ------- 3 3.0 9.2 4 14
- 0.196 7 8 cbr 1000 ------- 3 3.0 9.2 4 14
r 0.196 2 3 cbr 1000 ------- 2 2.0 9.1 8 25
+ 0.196 3 4 cbr 1000 ------- 2 2.0 9.1 8 25
r 0.196 4 5 cbr 1000 ------- 1 0.0 9.0 2 6
+ 0.196 5 6 cbr 1000 ------- 1 0.0 9.0 2 6
- 0.196 8 9 cbr 1000 ------- 3 3.0 9.2 2 8
- 0.196 5 6 cbr 1000 ------- 1 0.0 9.0 2 6
- 0.196 3 4 cbr 1000 ------- 2 2.0 9.1 7 22
r 0.198 8 9 cbr 1000 ------- 3 3.0 9.2 0 2
r 0.198 1 2 cbr 1000 ------- 1 0.0 9.0 7 21
+ 0.198 2 3 cbr 1000 ------- 1 0.0 9.0 7 21
- 0.198 2 3 cbr 1000 ------- 1 0.0 9.0 7 21
r 0.198 5 6 cbr 1000 ------- 1 0.0 9.0 1 3
+ 0.198 6 7 cbr 1000 ------- 1 0.0 9.0 1 3
r 0.198 3 4 cbr 1000 ------- 2 2.0 9.1 6 19
+ 0.198 4 5 cbr 1000 ------- 2 2.0 9.1 6 19
- 0.198 6 7 cbr 1000 ------- 1 0.0 9.0 1 3
- 0.198 4 5 cbr 1000 ------- 2 2.0 9.1 6 19
r 0.2 7 8 cbr 1000 ------- 3 3.0 9.2 3 11
+ 0.2 8 9 cbr 1000 ------- 3 3.0 9.2 3 11
r 0.2 6 7 cbr 1000 ------- 1 0.0 9.0 0 0
+ 0.2 7 8 cbr 1000 ------- 1 0.0 9.0 0 0
r 0.2 4 5 cbr 1000 ------- 2 2.0 9.1 5 16
+ 0.2 5 6 cbr 1000 ------- 2 2.0 9.1 5 16
+ 0.2 0 1 cbr 1000 ------- 1 0.0 9.0 10 30
- 0.2 0 1 cbr 1000 ------- 1 0.0 9.0 10 30
+ 0.2 2 3 cbr 1000 ------- 2 2.0 9.1 10 31
+ 0.2 3 4 cbr 1000 ------- 3 3.0 9.2 10 32
- 0.2 7 8 cbr 1000 ------- 1 0.0 9.0 0 0
- 0.2 5 6 cbr 1000 ------- 2 2.0 9.1 5 16
- 0.2 3 4 cbr 1000 ------- 3 3.0 9.2 9 29
r 0.202 2 3 cbr 1000 ------- 1 0.0 9.0 6 18
+ 0.202 3 4 cbr 1000 ------- 1 0.0 9.0 6 18
r 0.202 5 6 cbr 1000 ------- 2 2.0 9.1 4 13
+ 0.202 6 7 cbr 1000 ------- 2 2.0 9.1 4 13
r 0.202 3 4 cbr 1000 ------- 3 3.0 9.2 8 26
+ 0.202 4 5 cbr 1000 ------- 3 3.0 9.2 8 26
- 0.202 2 3 cbr 1000 ------- 2 2.0 9.1 10 31
- 0.202 6 7 cbr 1000 ------- 2 2.0 9.1 4 13
- 0.202 4 5 cbr 1000 ------- 3 3.0 9.2 8 26
r 0.204 0 1 cbr 1000 ------- 1 0.0 9.0 9 27
+ 0.204 1 2 cbr 1000 ------- 1 0.0 9.0 9 27
- 0.204 1 2 cbr 1000 ------- 1 0.0 9.0 9 27
r 0.204 7 8 cbr 1000 ------- 2 2.0 9.1 2 7
+ 0.204 8 9 cbr 1000 ------- 2 2.0 9.1 2 7
r 0.204 6 7 cbr 1000 ------- 2 2.0 9.1 3 10
+ 0.204 7 8 cbr 1000 ------- 2 2.0 9.1 3 10
r 0.204 4 5 cbr 1000 ------- 3 3.0 9.2 7 23
+ 0.204 5 6 cbr 1000 ------- 3 3.0 9.2 7 23
- 0.204 8 9 cbr 1000 ------- 2 2.0 9.1 1 4
- 0.204 7 8 cbr 1000 ------- 2 2.0 9.1 3 10
- 0.204 5 6 cbr 1000 ------- 3 3.0 9.2 7 23
- 0.204 3 4 cbr 1000 ------- 1 0.0 9.0 5 15
r 0.206 2 3 cbr 1000 ------- 2 2.0 9.1 9 28
+ 0.206 3 4 cbr 1000 ------- 2 2.0 9.1 9 28
r 0.206 5 6 cbr 1000 ------- 3 3.0 9.2 6 20
+ 0.206 6 7 cbr 1000 ------- 3 3.0 9.2 6 20
r 0.206 3 4 cbr 1000 ------- 1 0.0 9.0 4 12
+ 0.206 4 5 cbr 1000 ------- 1 0.0 9.0 4 12
- 0.206 6 7 cbr 1000 ------- 3 3.0 9.2 6 20
- 0.206 4 5 cbr 1000 ------- 1 0.0 9.0 4 12
r 0.208 8 9 cbr 1000 ------- 3 3.0 9.2 1 5
r 0.208 1 2 cbr 1000 ------- 1 0.0 9.0 8 24
+ 0.208 2 3 cbr 1000 ------- 1 0.0 9.0 8 24
- 0.208 2 3 cbr 1000 ------- 1 0.0 9.0 8 24
r 0.208 6 7 cbr 1000 ------- 3 3.0 9.2 5 17
+ 0.208 7 8 cbr 1000 ------- 3 3.0 9.2 5 17
r 0.208 4 5 cbr 1000 ------- 1 0.0 9.0 3 9
+ 0.208 5 6 cbr 1000 ------- 1 0.0 9.0 3 9
- 0.208 7 8 cbr 1000 ------- 3 3.0 9.2 5 17
- 0.208 5 6 cbr 1000 ------- 1 0.0 9.0 3 9
- 0.208 3 4 cbr 1000 ------- 2 2.0 9.1 8 25
r 0.21 7 8 cbr 1000 ------- 3 3.0 9.2 4 14
+ 0.21 8 9 cbr 1000 ------- 3 3.0 9.2 4 14
r 0.21 5 6 cbr 1000 ------- 1 0.0 9.0 2 6
+ 0.21 6 7 cbr 1000 ------- 1 0.0 9.0 2 6
r 0.21 3 4 cbr 1000 ------- 2 2.0 9.1 7 22
+ 0.21 4 5 cbr 1000 ------- 2 2.0 9.1 7 22
+ 0.21 0 1 cbr 1000 ------- 1 0.0 9.0 11 33
- 0.21 0 1 cbr 1000 ------- 1 0.0 9.0 11 33
+ 0.21 2 3 cbr 1000 ------- 2 2.0 9.1 11 34
+ 0.21 3 4 cbr 1000 ------- 3 3.0 9.2 11 35
- 0.21 6 7 cbr 1000 ------- 1 0.0 9.0 2 6
- 0.21 4 5 cbr 1000 ------- 2 2.0 9.1 7 22
r 0.212 2 3 cbr 1000 ------- 1 0.0 9.0 7 21
+ 0.212 3 4 cbr 1000 ------- 1 0.0 9.0 7 21
r 0.212 6 7 cbr 1000 ------- 1 0.0 9.0 1 3
+ 0.212 7 8 cbr 1000 ------- 1 0.0 9.0 1 3
r 0.212 4 5 cbr 1000 ------- 2 2.0 9.1 6 19
+ 0.212 5 6 cbr 1000 ------- 2 2.0 9.1 6 19
- 0.212 8 9 cbr 1000 ------- 3 3.0 9.2 3 11
- 0.212 2 3 cbr 1000 ------- 2 2.0 9.1 11 34
- 0.212 7 8 cbr 1000 ------- 1 0.0 9.0 1 3
- 0.212 5 6 cbr 1000 ------- 2 2.0 9.1 6 19
- 0.212 3 4 cbr 1000 ------- 3 3.0 9.2 10 32
r 0.214 0 1 cbr 1000 ------- 1 0.0 9.0 10 30
+ 0.214 1 2 cbr 1000 ------- 1 0.0 9.0 10 30
- 0.214 1 2 cbr 1000 ------- 1 0.0 9.0 10 30
r 0.214 7 8 cbr 1000 ------- 1 0.0 9.0 0 0
+ 0.214 8 9 cbr 1000 ------- 1 0.0 9.0 0 0
r 0.214 5 6 cbr 1000 ------- 2 2.0 9.1 5 16
+ 0.214 6 7 cbr 1000 ------- 2 2.0 9.1 5 16
r 0.214 3 4 cbr 1000 ------- 3 3.0 9.2 9 29
+ 0.214 4 5 cbr 1000 ------- 3 3.0 9.2 9 29
- 0.214 6 7 cbr 1000 ------- 2 2.0 9.1 5 16
- 0.214 4 5 cbr 1000 ------- 3 3.0 9.2 9 29
r 0.216 8 9 cbr 1000 ------- 2 2.0 9.1 0 1
r 0.216 2 3 cbr 1000 ------- 2 2.0 9.1 10 31
+ 0.216 3 4 cbr 1000 ------- 2 2.0 9.1 10 31
r 0.216 6 7 cbr 1000 ------- 2 2.0 9.1 4 13
+ 0.216 7 8 cbr 1000 ------- 2 2.0 9.1 4 13
r 0.216 4 5 cbr 1000 ------- 3 3.0 9.2 8 26
+ 0.216 5 6 cbr 1000 ------- 3 3.0 9.2 8 26
- 0.216 7 8 cbr 1000 ------- 2 2.0 9.1 4 13
- 0.216 5 6 cbr 1000 ------- 3 3.0 9.2 8 26
- 0.216 3 4 cbr 1000 ------- 1 0.0 9.0 6 18
r 0.218 1 2 cbr 1000 ------- 1 0.0 9.0 9 27
+ 0.218 2 3 cbr 1000 ------- 1 0.0 9.0 9 27
- 0.218 2 3 cbr 1000 ------- 1 0.0 9.0 9 27
r 0.218 7 8 cbr 1000 ------- 2 2.0 9.1 3 10
+ 0.218 8 9 cbr 1000 ------- 2 2.0 9.1 3 10
r 0.218 5 6 cbr 1000 ------- 3 3.0 9.2 7 23
+ 0.218 6 7 cbr 1000 ------- 3 3.0 9.2 7 23
r 0.218 3 4 cbr 1000 ------- 1 0.0 9.0 5 15
+ 0.218 4 5 cbr 1000 ------- 1 0.0 9.0 5 15
- 0.218 6 7 cbr 1000 ------- 3 3.0 9.2 7 23
- 0.218 4 5 cbr 1000 ------- 1 0.0 9.0 5 15
r 0.22 6 7 cbr 1000 ------- 3 3.0 9.2 6 20
+ 0.22 7 8 cbr 1000 ------- 3 3.0 9.2 6 20
r 0.22 4 5 cbr 1000 ------- 1 0.0 9.0 4 12
+ 0.22 5 6 cbr 1000 ------- 1 0.0 9.0 4 12
+ 0.22 0 1 cbr 1000 ------- 1 0.0 9.0 12 36
- 0.22 0 1 cbr 1000 ------- 1 0.0 9.0 12 36
+ 0.22 2 3 cbr 1000 ------- 2 2.0 9.1 12 37
+ 0.22 3 4 cbr 1000 ------- 3 3.0 9.2 12 38
- 0.22 8 9 cbr 1000 ------- 2 2.0 9.1 2 7
- 0.22 7 8 cbr 1000 ------- 3 3.0 9.2 6 20
- 0.22 5 6 cbr 1000 ------- 1 0.0 9.0 4 12
- 0.22 3 4 cbr 1000 ------- 2 2.0 9.1 9 28
r 0.222 2 3 cbr 1000 ------- 1 0.0 9.0 8 24
+ 0.222 3 4 cbr 1000 ------- 1 0.0 9.0 8 24
r 0.222 7 8 cbr 1000 ------- 3 3.0 9.2 5 17
+ 0.222 8 9 cbr 1000 ------- 3 3.0 9.2 5 17
r 0.222 5 6 cbr 1000 ------- 1 0.0 9.0 3 9
+ 0.222 6 7 cbr 1000 ------- 1 0.0 9.0 3 9
r 0.222 3 4 cbr 1000 ------- 2 2.0 9.1 8 25
+ 0.222 4 5 cbr 1000 ------- 2 2.0 9.1 8 25
- 0.222 2 3 cbr 1000 ------- 2 2.0 9.1 12 37
- 0.222 6 7 cbr 1000 ------- 1 0.0 9.0 3 9
- 0.222 4 5 cbr 1000 ------- 2 2.0 9.1 8 25
r 0.224 8 9 cbr 1000 ------- 3 3.0 9.2 2 8
r 0.224 0 1 cbr 1000 ------- 1 0.0 9.0 11 33
+ 0.224 1 2 cbr 1000 ------- 1 0.0 9.0 11 33
- 0.224 1 2 cbr 1000 ------- 1 0.0 9.0 11 33
r 0.224 6 7 cbr 1000 ------- 1 0.0 9.0 2 6
+ 0.224 7 8 cbr 1000 ------- 1 0.0 9.0 2 6
r 0.224 4 5 cbr 1000 ------- 2 2.0 9.1 7 22
+ 0.224 5 6 cbr 1000 ------- 2 2.0 9.1 7 22
- 0.224 7 8 cbr 1000 ------- 1 0.0 9.0 2 6
- 0.224 5 6 cbr 1000 ------- 2 2.0 9.1 7 22
- 0.224 3 4 cbr 1000 ------- 3 3.0 9.2 11 35
r 0.226 2 3 cbr 1000 ------- 2 2.0 9.1 11 34
+ 0.226 3 4 cbr 1000 ------- 2 2.0 9.1 11 34
r 0.226 7 8 cbr 1000 ------- 1 0.0 9.0 1 3
+ 0.226 8 9 cbr 1000 ------- 1 0.0 9.0 1 3
r 0.226 5 6 cbr 1000 ------- 2 2.0 9.1 6 19
+ 0.226 6 7 cbr 1000 ------- 2 2.0 9.1 6 19
r 0.226 3 4 cbr 1000 ------- 3 3.0 9.2 10 32
+ 0.226 4 5 cbr 1000 ------- 3 3.0 9.2 10 32
- 0.226 6 7 cbr 1000 ------- 2 2.0 9.1 6 19
- 0.226 4 5 cbr 1000 ------- 3 3.0 9.2 10 32
r 0.228 1 2 cbr 1000 ------- 1 0.0 9.0 10 30
+ 0.228 2 3 cbr 1000 ------- 1 0.0 9.0 10 30
- 0.228 2 3 cbr 1000 ------- 1 0.0 9.0 10 30
r 0.228 6 7 cbr 1000 ------- 2 2.0 9.1 5 16
+ 0.228 7 8 cbr 1000 ------- 2 2.0 9.1 5 16
r 0.228 4 5 cbr 1000 ------- 3 3.0 9.2 9 29
+ 0.228 5 6 cbr 1000 ------- 3 3.0 9.2 9 29
- 0.228 8 9 cbr 1000 ------- 3 3.0 9.2 4 14
- 0.228 7 8 cbr 1000 ------- 2 2.0 9.1 5 16
- 0.228 5 6 cbr 1000 ------- 3 3.0 9.2 9 29
- 0.228 3 4 cbr 1000 ------- 1 0.0 9.0 7 21
r 0.23 7 8 cbr 1000 ------- 2 2.0 9.1 4 13
+ 0.23 8 9 cbr 1000 ------- 2 2.0 9.1 4 13
r 0.23 5 6 cbr 1000 ------- 3 3.0 9.2 8 26
+ 0.23 6 7 cbr 1000 ------- 3 3.0 9.2 8 26
r 0.23 3 4 cbr 1000 ------- 1 0.0 9.0 6 18
+ 0.23 4 5 cbr 1000 ------- 1 0.0 9.0 6 18
+ 0.23 0 1 cbr 1000 ------- 1 0.0 9.0 13 39
- 0.23 0 1 cbr 1000 ------- 1 0.0 9.0 13 39
+ 0.23 2 3 cbr 1000 ------- 2 2.0 9.1 13 40
+ 0.23 3 4 cbr 1000 ------- 3 3.0 9.2 13 41
- 0.23 6 7 cbr 1000 ------- 3 3.0 9.2 8 26
- 0.23 4 5 cbr 1000 ------- 1 0.0 9.0 6 18
r 0.232 8 9 cbr 1000 ------- 2 2.0 9.1 1 4
r 0.232 2 3 cbr 1000 ------- 1 0.0 9.0 9 27
+ 0.232 3 4 cbr 1000 ------- 1 0.0 9.0 9 27
r 0.232 6 7 cbr 1000 ------- 3 3.0 9.2 7 23
+ 0.232 7 8 cbr 1000 ------- 3 3.0 9.2 7 23
r 0.232 4 5 cbr 1000 ------- 1 0.0 9.0 5 15
+ 0.232 5 6 cbr 1000 ------- 1 0.0 9.0 5 15
- 0.232 2 3 cbr 1000 ------- 2 2.0 9.1 13 40
- 0.232 7 8 cbr 1000 ------- 3 3.0 9.2 7 23
- 0.232 5 6 cbr 1000 ------- 1 0.0 9.0 5 15
- 0.232 3 4 cbr 1000 ------- 2 2.0 9.1 10 31
r 0.234 0 1 cbr 1000 ------- 1 0.0 9.0 12 36
+ 0.234 1 2 cbr 1000 ------- 1 0.0 9.0 12 36
- 0.234 1 2 cbr 1000 ------- 1 0.0 9.0 12 36
r 0.234 7 8 cbr 1000 ------- 3 3.0 9.2 6 20
+ 0.234 8 9 cbr 1000 ------- 3 3.0 9.2 6 20
r 0.234 5 6 cbr 1000 ------- 1 0.0 9.0 4 12
+ 0.234 6 7 cbr 1000 ------- 1 0.0 9.0 4 12
r 0.234 3 4 cbr 1000 ------- 2 2.0 9.1 9 28
+ 0.234 4 5 cbr 1000 ------- 2 2.0 9.1 9 28
- 0.234 6 7 cbr 1000 ------- 1 0.0 9.0 4 12
- 0.234 4 5 cbr 1000 ------- 2 2.0 9.1 9 28
r 0.236 2 3 cbr 1000 ------- 2 2.0 9.1 12 37
+ 0.236 3 4 cbr 1000 ------- 2 2.0 9.1 12 37
r 0.236 6 7 cbr 1000 ------- 1 0.0 9.0 3 9
+ 0.236 7 8 cbr 1000 ------- 1 0.0 9.0 3 9
r 0.236 4 5 cbr 1000 ------- 2 2.0 9.1 8 25
+ 0.236 5 6 cbr 1000 ------- 2 2.0 9.1 8 25
- 0.236 8 9 cbr 1000 ------- 1 0.0 9.0 0 0
- 0.236 7 8 cbr 1000 ------- 1 0.0 9.0 3 9
- 0.236 5 6 cbr 1000 ------- 2 2.0 9.1 8 25
- 0.236 3 4 cbr 1000 ------- 3 3.0 9.2 12 38
r 0.238 1 2 cbr 1000 ------- 1 0.0 9.0 11 33
+ 0.238 2 3 cbr 1000 ------- 1 0.0 9.0 11 33
- 0.238 2 3 cbr 1000 ------- 1 0.0 9.0 11 33
r 0.238 7 8 cbr 1000 ------- 1 0.0 9.0 2 6
+ 0.238 8 9 cbr 1000 ------- 1 0.0 9.0 2 6
r 0.238 5 6 cbr 1000 ------- 2 2.0 9.1 7 22
+ 0.238 6 7 cbr 1000 ------- 2 2.0 9.1 7 22
r 0.238 3 4 cbr 1000 ------- 3 3.0 9.2 11 35
+ 0.238 4 5 cbr 1000 ------- 3 3.0 9.2 11 35
- 0.238 6 7 cbr 1000 ------- 2 2.0 9.1 7 22
- 0.238 4 5 cbr 1000 ------- 3 3.0 9.2 11 35
r 0.24 8 9 cbr 1000 ------- 3 3.0 9.2 3 11
r 0.24 6 7 cbr 1000 ------- 2 2.0 9.1 6 19
+ 0.24 7 8 cbr 1000 ------- 2 2.0 9.1 6 19
r 0.24 4 5 cbr 1000 ------- 3 3.0 9.2 10 32
+ 0.24 5 6 cbr 1000 ------- 3 3.0 9.2 10 32
+ 0.24 0 1 cbr 1000 ------- 1 0.0 9.0 14 42
- 0.24 0 1 cbr 1000 ------- 1 0.0 9.0 14 42
+ 0.24 2 3 cbr 1000 ------- 2 2.0 9.1 14 43
+ 0.24 3 4 cbr 1000 ------- 3 3.0 9.2 14 44
- 0.24 7 8 cbr 1000 ------- 2 2.0 9.1 6 19
- 0.24 5 6 cbr 1000 ------- 3 3.0 9.2 10 32
- 0.24 3 4 cbr 1000 ------- 1 0.0 9.0 8 24
r 0.242 2 3 cbr 1000 ------- 1 0.0 9.0 10 30
+ 0.242 3 4 cbr 1000 ------- 1 0.0 9.0 10 30
r 0.242 7 8 cbr 1000 ------- 2 2.0 9.1 5 16
+ 0.242 8 9 cbr 1000 ------- 2 2.0 9.1 5 16
r 0.242 5 6 cbr 1000 ------- 3 3.0 9.2 9 29
+ 0.242 6 7 cbr 1000 ------- 3 3.0 9.2 9 29
r 0.242 3 4 cbr 1000 ------- 1 0.0 9.0 7 21
+ 0.242 4 5 cbr 1000 ------- 1 0.0 9.0 7 21
- 0.242 2 3 cbr 1000 ------- 2 2.0 9.1 14 43
- 0.242 6 7 cbr 1000 ------- 3 3.0 9.2 9 29
- 0.242 4 5 cbr 1000 ------- 1 0.0 9.0 7 21
r 0.244 0 1 cbr 1000 ------- 1 0.0 9.0 13 39
+ 0.244 1 2 cbr 1000 ------- 1 0.0 9.0 13 39
- 0.244 1 2 cbr 1000 ------- 1 0.0 9.0 13 39
r 0.244 6 7 cbr 1000 ------- 3 3.0 9.2 8 26
+ 0.244 7 8 cbr 1000 ------- 3 3.0 9.2 8 26
r 0.244 4 5 cbr 1000 ------- 1 0.0 9.0 6 18
+ 0.244 5 6 cbr 1000 ------- 1 0.0 9.0 6 18
- 0.244 8 9 cbr 1000 ------- 2 2.0 9.1 3 10
- 0.244 7 8 cbr 1000 ------- 3 3.0 9.2 8 26
- 0.244 5 6 cbr 1000 ------- 1 0.0 9.0 6 18
- 0.244 3 4 cbr 1000 ------- 2 2.0 9.1 11 34
r 0.246 2 3 cbr 1000 ------- 2 2.0 9.1 13 40
+ 0.246 3 4 cbr 1000 ------- 2 2.0 9.1 13 40
r 0.246 7 8 cbr 1000 ------- 3 3.0 9.2 7 23
+ 0.246 8 9 cbr 1000 ------- 3 3.0 9.2 7 23
r 0.246 5 6 cbr 1000 ------- 1 0.0 9.0 5 15
+ 0.246 6 7 cbr 1000 ------- 1 0.0 9.0 5 15
r 0.246 3 4 cbr 1000 ------- 2 2.0 9.1 10 31
+ 0.246 4 5 cbr 1000 ------- 2 2.0 9.1 10 31
- 0.246 6 7 cbr 1000 ------- 1 0.0 9.0 5 15
- 0.246 4 5 cbr 1000 ------- 2 2.0 9.1 10 31
r 0.248 8 9 cbr 1000 ------- 2 2.0 9.1 2 7
r 0.248 1 2 cbr 1000 ------- 1 0.0 9.0 12 36
+ 0.248 2 3 cbr 1000 ------- 1 0.0 9.0 12 36
- 0.248 2 3 cbr 1000 ------- 1 0.0 9.0 12 36
r 0.248 6 7 cbr 1000 ------- 1 0.0 9.0 4 12
+ 0.248 7 8 cbr 1000 ------- 1 0.0 9.0 4 12
r 0.248 4 5 cbr 1000 ------- 2 2.0 9.1 9 28
+ 0.248 5 6 cbr 1000 ------- 2 2.0 9.1 9 28
- 0.248 7 8 cbr 1000 ------- 1 0.0 9.0 4 12
- 0.248 5 6 cbr 1000 ------- 2 2.0 9.1 9 28
- 0.248 3 4 cbr 1000 ------- 3 3.0 9.2 13 41
r 0.25 7 8 cbr 1000 ------- 1 0.0 9.0 3 9
+ 0.25 8 9 cbr 1000 ------- 1 0.0 9.0 3 9
d 0.25 8 9 cbr 1000 ------- 1 0.0 9.0 3 9
r 0.25 5 6 cbr 1000 ------- 2 2.0 9.1 8 25
+ 0.25 6 7 cbr 1000 ------- 2 2.0 9.1 8 25
r 0.25 3 4 cbr 1000 ------- 3 3.0 9.2 12 38
+ 0.25 4 5 cbr 1000 ------- 3 3.0 9.2 12 38
+ 0.25 0 1 cbr 1000 ------- 1 0.0 9.0 15 45
- 0.25 0 1 cbr 1000 ------- 1 0.0 9.0 15 45
+ 0.25 2 3 cbr 1000 ------- 2 2.0 9.1 15 46
+ 0.25 3 4 cbr 1000 ------- 3 3.0 9.2 15 47
- 0.25 6 7 cbr 1000 ------- 2 2.0 9.1 8 25
- 0.25 4 5 cbr 1000 ------- 3 3.0 9.2 12 38
r 0.252 2 3 cbr 1000 ------- 1 0.0 9.0 11 33
+ 0.252 3 4 cbr 1000 ------- 1 0.0 9.0 11 33
r 0.252 6 7 cbr 1000 ------- 2 2.0 9.1 7 22
+ 0.252 7 8 cbr 1000 ------- 2 2.0 9.1 7 22
r 0.252 4 5 cbr 1000 ------- 3 3.0 9.2 11 35
+ 0.252 5 6 cbr 1000 ------- 3 3.0 9.2 11 35
- 0.252 8 9 cbr 1000 ------- 3 3.0 9.2 5 17
- 0.252 2 3 cbr 1000 ------- 2 2.0 9.1 15 46
- 0.252 7 8 cbr 1000 ------- 2 2.0 9.1 7 22
- 0.252 5 6 cbr 1000 ------- 3 3.0 9.2 11 35
- 0.252 3 4 cbr 1000 ------- 1 0.0 9.0 9 27
r 0.254 0 1 cbr 1000 ------- 1 0.0 9.0 14 42
+ 0.254 1 2 cbr 1000 ------- 1 0.0 9.0 14 42
- 0.254 1 2 cbr 1000 ------- 1 0.0 9.0 14 42
r 0.254 7 8 cbr 1000 ------- 2 2.0 9.1 6 19
+ 0.254 8 9 cbr 1000 ------- 2 2.0 9.1 6 19
r 0.254 5 6 cbr 1000 ------- 3 3.0 9.2 10 32
+ 0.254 6 7 cbr 1000 ------- 3 3.0 9.2 10 32
r 0.254 3 4 cbr 1000 ------- 1 0.0 9.0 8 24
+ 0.254 4 5 cbr 1000 ------- 1 0.0 9.0 8 24
- 0.254 6 7 cbr 1000 ------- 3 3.0 9.2 10 32
- 0.254 4 5 cbr 1000 ------- 1 0.0 9.0 8 24
r 0.256 8 9 cbr 1000 ------- 3 3.0 9.2 4 14
r 0.256 2 3 cbr 1000 ------- 2 2.0 9.1 14 43
+ 0.256 3 4 cbr 1000 ------- 2 2.0 9.1 14 43
r 0.256 6 7 cbr 1000 ------- 3 3.0 9.2 9 29
+ 0.256 7 8 cbr 1000 ------- 3 3.0 9.2 9 29
r 0.256 4 5 cbr 1000 ------- 1 0.0 9.0 7 21
+ 0.256 5 6 cbr 1000 ------- 1 0.0 9.0 7 21
- 0.256 7 8 cbr 1000 ------- 3 3.0 9.2 9 29
- 0.256 5 6 cbr 1000 ------- 1 0.0 9.0 7 21
- 0.256 3 4 cbr 1000 ------- 2 2.0 9.1 12 37
r 0.258 1 2 cbr 1000 ------- 1 0.0 9.0 13 39
+ 0.258 2 3 cbr 1000 ------- 1 0.0 9.0 13 39
- 0.258 2 3 cbr 1000 ------- 1 0.0 9.0 13 39
r 0.258 7 8 cbr 1000 ------- 3 3.0 9.2 8 26
+ 0.258 8 9 cbr 1000 ------- 3 3.0 9.2 8 26
d 0.258 8 9 cbr 1000 ------- 3 3.0 9.2 8 26
r 0.258 5 6 cbr 1000 ------- 1 0.0 9.0 6 18
+ 0.258 6 7 cbr 1000 ------- 1 0.0 9.0 6 18
r 0.258 3 4 cbr 1000 ------- 2 2.0 9.1 11 34
+ 0.258 4 5 cbr 1000 ------- 2 2.0 9.1 11 34
- 0.258 6 7 cbr 1000 ------- 1 0.0 9.0 6 18
- 0.258 4 5 cbr 1000 ------- 2 2.0 9.1 11 34
r 0.26 6 7 cbr 1000 ------- 1 0.0 9.0 5 15
+ 0.26 7 8 cbr 1000 ------- 1 0.0 9.0 5 15
r 0.26 4 5 cbr 1000 ------- 2 2.0 9.1 10 31
+ 0.26 5 6 cbr 1000 ------- 2 2.0 9.1 10 31
+ 0.26 0 1 cbr 1000 ------- 1 0.0 9.0 16 48
- 0.26 0 1 cbr 1000 ------- 1 0.0 9.0 16 48
+ 0.26 2 3 cbr 1000 ------- 2 2.0 9.1 16 49
+ 0.26 3 4 cbr 1000 ------- 3 3.0 9.2 16 50
- 0.26 8 9 cbr 1000 ------- 1 0.0 9.0 1 3
- 0.26 7 8 cbr 1000 ------- 1 0.0 9.0 5 15
- 0.26 5 6 cbr 1000 ------- 2 2.0 9.1 10 31
- 0.26 3 4 cbr 1000 ------- 3 3.0 9.2 14 44
r 0.262 2 3 cbr 1000 ------- 1 0.0 9.0 12 36
+ 0.262 3 4 cbr 1000 ------- 1 0.0 9.0 12 36
r 0.262 7 8 cbr 1000 ------- 1 0.0 9.0 4 12
+ 0.262 8 9 cbr 1000 ------- 1 0.0 9.0 4 12
r 0.262 5 6 cbr 1000 ------- 2 2.0 9.1 9 28
+ 0.262 6 7 cbr 1000 ------- 2 2.0 9.1 9 28
r 0.262 3 4 cbr 1000 ------- 3 3.0 9.2 13 41
+ 0.262 4 5 cbr 1000 ------- 3 3.0 9.2 13 41
- 0.262 2 3 cbr 1000 ------- 2 2.0 9.1 16 49
- 0.262 6 7 cbr 1000 ------- 2 2.0 9.1 9 28
- 0.262 4 5 cbr 1000 ------- 3 3.0 9.2 13 41
r 0.264 8 9 cbr 1000 ------- 1 0.0 9.0 0 0
r 0.264 0 1 cbr 1000 ------- 1 0.0 9.0 15 45
+ 0.264 1 2 cbr 1000 ------- 1 0.0 9.0 15 45
- 0.264 1 2 cbr 1000 ------- 1 0.0 9.0 15 45